# winmostar

         8 atoms    

         3 atom types    

      -13.936211250000000        13.540788750000000 xlo xhi
      -14.165340000000000        13.311660000000000 ylo yhi
      -14.347336250000000        13.129663750000000 zlo zhi

Masses

    1        12.011000000000000 # C    
    2         1.008000000000000 # H    
    3        35.450000000000000 # Cl   

Atoms

       1     1         0.018690000000000         0.008970000000000         0.021940000000000
       2     2         1.131950000000000         0.019700000000000         0.079900000000000
       3     2        -0.326960000000000         1.068600000000000         0.036200000000000
       4     1        -0.468420000000000        -0.696120000000000        -1.237500000000000
       5     2        -0.372300000000000        -0.482630000000000         0.942960000000000
       6     2        -0.068880000000000        -0.211120000000000        -2.152230000000000
       7     3         0.081150000000000        -2.408400000000000        -1.274360000000000
       8     2        -1.576920000000000        -0.713720000000000        -1.287600000000000

