LAMMPS (29 Sep 2021 - Update 1)
  using 1 OpenMP thread(s) per MPI task

units metal
boundary p p p
atom_style atomic
atom_modify map yes
read_data input/nylon.data
Reading data file ...
  orthogonal box = (0.0000000 0.0000000 0.0000000) to (33.591000 33.591000 33.591000)
  1 by 1 by 1 MPI processor grid
  reading atoms ...
  3880 atoms
  read_data CPU = 0.005 seconds

pair_style pfp_api v5.0.0 CRYSTAL_PLUS_D3
pair_coeff * * species H C N O

timestep 0.001

thermo 100
thermo_style custom step temp etotal pe ke lx ly lz vol press density
velocity all create 300 12345 dist gaussian mom yes
fix NPT all npt temp 300 300 0.1 iso 0.987 0.987 1.0
run 10000
Neighbor list info ...
  update every 1 steps, delay 10 steps, check yes
  max neighbors/atom: 2000, page size: 100000
  master list distance cutoff = 2.01
  ghost atom cutoff = 2.01
  binsize = 1.005, bins = 34 34 34
  1 neighbor lists, perpetual/occasional/extra = 1 0 0
  (1) pair pfp_api, perpetual
      attributes: half, newton on
      pair build: half/bin/atomonly/newton
      stencil: half/bin/3d
      bin: standard
Per MPI rank memory allocation (min/avg/max) = 3.383 | 3.383 | 3.383 Mbytes
Step Temp TotEng PotEng KinEng Lx Ly Lz Volume Press Density 
       0          300    -17241.41    -17391.83    150.42003       33.591       33.591       33.591    37902.582    10140.057    1.0046767 
     100    300.91669   -17235.219   -17386.099    150.87966    33.524047    33.524047    33.524047    37676.393    9105.9939    1.0107082 
     200    303.80889   -17229.571   -17381.901    152.32981    33.401254    33.401254    33.401254    37263.901    4309.0182    1.0218963 
     300    300.32007   -17226.571   -17377.152    150.58052    33.318951    33.318951    33.318951    36989.117    369.90235    1.0294877 
     400    303.02299    -17228.13   -17380.066    151.93576     33.29961     33.29961     33.29961    36924.739    -459.8522    1.0312826 
     500    302.76626   -17232.507   -17384.314    151.80704     33.34621     33.34621     33.34621    37079.974    443.92811    1.0269651 
     600    293.92384   -17234.555   -17381.928    147.37345    33.406121    33.406121    33.406121    37280.191   -1249.9778    1.0214497 
     700    295.46822    -17233.54   -17381.687     148.1478    33.446669    33.446669    33.446669    37416.108    -67.59696    1.0177392 
     800    301.51697   -17230.381   -17381.561    151.18064    33.479719    33.479719    33.479719    37527.136    862.41427    1.0147281 
     900    303.22215   -17227.043   -17379.079    152.03562    33.488506    33.488506    33.488506    37556.692   -318.77515    1.0139296 
    1000    305.76574   -17228.191   -17381.502    153.31097    33.507077    33.507077    33.507077    37619.208    259.67655    1.0122446 
    1100    297.50886   -17234.148   -17383.319    149.17097    33.530348    33.530348    33.530348    37697.641    861.24386    1.0101386 
    1200    301.41061   -17234.539   -17385.667    151.12731    33.550529    33.550529    33.550529     37765.75   -64.081669    1.0083168 
    1300     304.3876   -17232.945   -17385.565    152.61997    33.568007    33.568007    33.568007    37824.803   -1769.6727    1.0067426 
    1400    305.98886   -17231.175   -17384.598    153.42284    33.549672    33.549672    33.549672    37762.857    801.34591    1.0083941 
    1500    301.80041   -17230.378   -17381.701    151.32276    33.546185    33.546185    33.546185    37751.084    -1227.494    1.0087086 
    1600    302.23603   -17233.432   -17384.973    151.54118    33.526749    33.526749    33.526749    37685.505   -1111.0257    1.0104639 
    1700    301.53133   -17237.152    -17388.34    151.18784     33.49181     33.49181     33.49181    37567.808    1551.4922    1.0136296 
    1800    294.56289   -17237.359   -17385.053    147.69386    33.458339    33.458339    33.458339    37455.288   -1493.6036    1.0166746 
    1900    299.40598   -17234.062   -17384.185    150.12219    33.426415    33.426415    33.426415    37348.176    1557.7876    1.0195904 
    2000    302.02821   -17230.406   -17381.843    151.43698    33.406067    33.406067    33.406067    37280.012   -112.24046    1.0214546 
    2100     304.1568   -17229.393   -17381.897    152.50425    33.378899    33.378899    33.378899     37189.13     2090.547    1.0239509 
    2200    299.27905   -17236.314   -17386.372    150.05855    33.397693    33.397693    33.397693    37251.983    700.42398    1.0222232 
    2300    291.77911     -17238.6   -17384.898    146.29807    33.442277    33.442277    33.442277    37401.371   -470.58354    1.0181402 
    2400    288.55294   -17237.937   -17382.618    144.68048    33.464928    33.464928    33.464928    37477.419    156.53271    1.0160743 
    2500    302.16745   -17234.703    -17386.21    151.50679    33.483388    33.483388    33.483388    37539.476    399.61978    1.0143946 
    2600    298.85795   -17233.265   -17383.113    149.84741    33.512124    33.512124    33.512124    37636.209    -659.2541    1.0117874 
    2700    310.51524   -17233.655   -17389.347    155.69237    33.552829    33.552829    33.552829    37773.516    815.91458    1.0081095 
    2800    295.89622    -17238.92   -17387.282     148.3624    33.587815    33.587815    33.587815    37891.801    338.85343    1.0049626 
    2900    292.74121   -17239.935   -17386.715    146.78047    33.578694    33.578694    33.578694    37860.941      159.003    1.0057817 
    3000    302.37862   -17236.852   -17388.465    151.61267     33.54328     33.54328     33.54328    37741.277   -642.11089    1.0089707 
    3100    305.50692   -17234.135   -17387.316     153.1812    33.513374    33.513374    33.513374    37640.419    916.57407    1.0116742 
    3200     305.7802   -17234.431   -17387.749    153.31823    33.508285    33.508285    33.508285    37623.276   -1292.3793    1.0121352 
    3300     298.3831   -17235.902   -17385.512    149.60932    33.489067    33.489067    33.489067    37558.577   -2324.0037    1.0138787 
    3400    300.32649   -17237.621   -17388.205    150.58373     33.46391     33.46391     33.46391        37474    1317.8731     1.016167 
    3500    293.74072   -17242.786   -17390.068    147.28163    33.438559    33.438559    33.438559    37388.897   -271.34054    1.0184799 
    3600    295.88105   -17244.382   -17392.737    148.35479    33.424137    33.424137    33.424137    37340.542   -740.48482    1.0197988 
    3700    296.71421   -17241.055   -17389.828    148.77254    33.416827    33.416827    33.416827    37316.046   -1831.7738    1.0204683 
    3800     299.7704   -17238.564   -17388.869    150.30491    33.433883    33.433883    33.433883    37373.213   -233.52128    1.0189073 
    3900    297.88683   -17235.742   -17385.102    149.36049    33.469605    33.469605    33.469605    37493.137   -1878.5349    1.0156483 
    4000    306.48372   -17232.836   -17386.507    153.67097    33.459053    33.459053    33.459053    37457.686   -1433.0655    1.0166095 
    4100    298.99716   -17233.979   -17383.896    149.91721    33.434819    33.434819    33.434819    37376.353    33.578185    1.0188217 
    4200    294.40476   -17237.651   -17385.266    147.61458    33.426592    33.426592    33.426592    37348.771     950.2739    1.0195741 
    4300    301.50003   -17238.004   -17389.176    151.17215    33.451961    33.451961    33.451961    37433.873    954.98867    1.0172563 
    4400    302.76955   -17237.661   -17389.469    151.80868    33.474374    33.474374    33.474374    37509.164   -51.341536    1.0152144 
    4500    303.08305   -17237.653   -17389.619    151.96587    33.493363    33.493363    33.493363    37573.035    1519.0462    1.0134886 
    4600    299.21176   -17238.048   -17388.073    150.02481    33.512555    33.512555    33.512555    37637.659    501.33005    1.0117484 
    4700    298.78752   -17237.712   -17387.524    149.81209    33.523473    33.523473    33.523473    37674.459    -395.4443    1.0107601 
    4800    302.76765   -17234.073   -17385.881    151.80773    33.536831    33.536831    33.536831    37719.511   -1207.8105    1.0095529 
    4900    308.11362   -17232.353   -17386.841     154.4882    33.534628    33.534628    33.534628    37712.079    735.59492    1.0097518 
    5000    300.01893   -17235.494   -17385.923    150.42952    33.524054    33.524054    33.524054    37676.417    -445.4181    1.0107076 
    5100    301.32418   -17238.979   -17390.063    151.08397    33.489534    33.489534    33.489534    37560.149   -1184.6459    1.0138363 
    5200    301.20172   -17239.571   -17390.594    151.02257     33.43913     33.43913     33.43913    37390.813    1472.9969    1.0184277 
    5300    297.10783   -17239.263   -17388.233     148.9699    33.458602    33.458602    33.458602    37456.172    1163.5736    1.0166506 
    5400    305.03104   -17236.785   -17389.728    152.94259    33.505109    33.505109    33.505109     37612.58    1177.1733     1.012423 
    5500    306.62909   -17232.161   -17385.905    153.74386    33.532439    33.532439    33.532439    37704.695    1734.5885    1.0099496 
    5600    302.25378   -17232.426   -17383.976    151.55008    33.543565    33.543565    33.543565    37742.237    2086.2279     1.008945 
    5700    305.33885   -17236.116   -17389.213    153.09693    33.551053    33.551053    33.551053    37767.519    1101.5919    1.0082696 
    5800    300.31678   -17237.421       -17388    150.57887    33.526547    33.526547    33.526547    37684.823    1129.7673    1.0104822 
    5900    297.01589   -17238.362   -17387.286     148.9238     33.47056     33.47056     33.47056    37496.344    427.19393    1.0155614 
    6000    299.73458   -17238.738   -17389.025    150.28695    33.417451    33.417451    33.417451    37318.138   -428.40069    1.0204111 
    6100    298.98295   -17238.677   -17388.587    149.91008    33.417164    33.417164    33.417164    37317.176   -1807.2295    1.0204374 
    6200    299.78619   -17238.703   -17389.016    150.31283    33.445707    33.445707    33.445707    37412.881    -373.4442     1.017827 
    6300     297.0185   -17239.903   -17388.828    148.92511    33.484901    33.484901    33.484901    37544.562    453.28031    1.0142572 
    6400    295.56454    -17238.23   -17386.426    148.19609    33.502443    33.502443    33.502443    37603.602    615.22809    1.0126647 
    6500     304.2237   -17235.797   -17388.334     152.5378    33.482505    33.482505    33.482505    37536.503    183.79911    1.0144749 
    6600    304.02297   -17235.595   -17388.032    152.43715    33.439081    33.439081    33.439081    37390.648     452.1421    1.0184322 
    6700    298.47389   -17239.802   -17389.457    149.65484    33.401075    33.401075    33.401075    37263.303    1707.9678    1.0219127 
    6800    295.48759   -17242.196   -17390.353    148.15751    33.401185    33.401185    33.401185     37263.67    198.47017    1.0219026 
    6900    298.12949   -17239.862   -17389.344    149.48216    33.397519    33.397519    33.397519      37251.4   -1705.8407    1.0222392 
    7000    302.40777     -17236.9   -17388.527    151.62729     33.40204     33.40204     33.40204    37266.531   -2274.7265    1.0218241 
    7100    302.11952   -17236.644   -17388.126    151.48276    33.404253    33.404253    33.404253    37273.938   -688.69388    1.0216211 
    7200    297.80862    -17236.94   -17386.261    149.32127    33.443043    33.443043    33.443043     37403.94   -2416.9129    1.0180703 
    7300    302.23497   -17236.924   -17388.464    151.54064     33.47107     33.47107     33.47107    37498.058   -2033.2924     1.015515 
    7400    302.35565   -17236.175   -17387.776    151.60115    33.486403    33.486403    33.486403    37549.617    924.09506    1.0141206 
    7500    304.31471   -17238.577    -17391.16    152.58343    33.465648    33.465648    33.465648     37479.84    437.00328    1.0160086 
    7600    301.45891   -17241.525   -17392.676    151.15153    33.413624    33.413624    33.413624    37305.318    437.89131    1.0207617 
    7700    295.14664   -17241.505   -17389.491    147.98656    33.340435    33.340435    33.340435    37060.715    187.59312    1.0274988 
    7800    303.07934   -17237.067   -17389.031    151.96401    33.269723    33.269723    33.269723    36825.406   -160.92208    1.0340644 
    7900    297.82341   -17235.462   -17384.791    149.32869    33.214995    33.214995    33.214995    36643.974    758.16372    1.0391843 
    8000    299.08064   -17236.958   -17386.917    149.95906    33.211183    33.211183    33.211183     36631.36    110.22659    1.0395421 
    8100    299.35881   -17238.336   -17388.434    150.09854     33.26265     33.26265     33.26265    36801.924   -1310.1591    1.0347242 
    8200    293.80371   -17239.251   -17386.564    147.31321    33.342268    33.342268    33.342268    37066.827   -1682.2382    1.0273294 
    8300    299.41938   -17238.961    -17389.09    150.12891    33.406712    33.406712    33.406712    37282.172    543.25612    1.0213955 
    8400    299.56408   -17237.946   -17388.148    150.20146    33.462556    33.462556    33.462556     37469.45   -462.11289    1.0162904 
    8500    297.23351   -17235.235   -17384.268    149.03291    33.466797    33.466797    33.466797      37483.7   -205.55521     1.015904 
    8600    299.07849   -17233.542     -17383.5    149.95799    33.449954    33.449954    33.449954    37427.134    606.75767    1.0174394 
    8700     299.7096   -17234.339   -17384.613    150.27443    33.434075    33.434075    33.434075    37373.859    -255.3719    1.0188897 
    8800    303.47923   -17239.337   -17391.502    152.16452    33.400031    33.400031    33.400031    37259.808    976.77611    1.0220085 
    8900    294.74204   -17241.238   -17389.022    147.78369    33.375618    33.375618    33.375618    37178.165   -1495.3607    1.0242528 
    9000     297.0224   -17240.955   -17389.882    148.92706     33.34947     33.34947     33.34947    37090.851   -612.48199     1.026664 
    9100    300.68373   -17240.237       -17391    150.76285    33.344309    33.344309    33.344309    37073.635    701.49427    1.0271407 
    9200    308.09126   -17238.756   -17393.233    154.47699    33.345641    33.345641    33.345641    37078.079   -1067.7972    1.0270176 
    9300    299.99953   -17238.262   -17388.682     150.4198    33.336485    33.336485    33.336485    37047.543    548.63536    1.0278641 
    9400    294.82086    -17240.04   -17387.863    147.82321    33.349091    33.349091    33.349091    37089.589    466.45626    1.0266989 
    9500    301.22152   -17243.294   -17394.326     151.0325    33.379244    33.379244    33.379244    37190.285   -81.731964    1.0239191 
    9600    298.52739   -17244.592   -17394.274    149.68167    33.389227    33.389227    33.389227    37223.661   -1764.7648     1.023001 
    9700     298.1247   -17240.268   -17389.748    149.47975    33.352722    33.352722    33.352722    37101.704    1487.6052    1.0263637 
    9800    302.78389   -17236.733   -17388.549    151.81588    33.311207    33.311207    33.311207    36963.331    868.23724    1.0302059 
    9900    299.43453   -17238.474    -17388.61    150.13651    33.314261    33.314261    33.314261    36973.498     772.1475    1.0299226 
   10000    297.60887    -17242.29   -17391.511    149.22112    33.339761    33.339761    33.339761    37058.468   -1667.7976    1.0275611 
Loop time of 9009.75 on 1 procs for 10000 steps with 3880 atoms

Performance: 0.096 ns/day, 250.271 hours/ns, 1.110 timesteps/s
0.3% CPU use with 1 MPI tasks x 1 OpenMP threads

MPI task timing breakdown:
Section |  min time  |  avg time  |  max time  |%varavg| %total
---------------------------------------------------------------
Pair    | 9006.9     | 9006.9     | 9006.9     |   0.0 | 99.97
Neigh   | 0.5082     | 0.5082     | 0.5082     |   0.0 |  0.01
Comm    | 0.26125    | 0.26125    | 0.26125    |   0.0 |  0.00
Output  | 0.0085828  | 0.0085828  | 0.0085828  |   0.0 |  0.00
Modify  | 1.8856     | 1.8856     | 1.8856     |   0.0 |  0.02
Other   |            | 0.2275     |            |       |  0.00

Nlocal:        3880.00 ave        3880 max        3880 min
Histogram: 1 0 0 0 0 0 0 0 0 0
Nghost:        1587.00 ave        1587 max        1587 min
Histogram: 1 0 0 0 0 0 0 0 0 0
Neighs:        5269.00 ave        5269 max        5269 min
Histogram: 1 0 0 0 0 0 0 0 0 0

Total # of neighbors = 5269
Ave neighs/atom = 1.3579897
Neighbor list builds = 320
Dangerous builds = 0
unfix NPT

dump 1 all custom 100 tensile.lammpstrj id type element x y z vx vy vz fx fy fz
dump_modify 1 element H C N O

thermo_style custom step elapsed temp pe ke etotal press vol density pxx pyy pzz lx ly lz
fix NPT all npt temp 300 300 0.1 x 0.987 0.987 1.0 y 0.987 0.987 1.0 drag 1.0
fix DEFORM all deform 1 z erate 0.5 units box remap x
reset_timestep 0
run 20000
Per MPI rank memory allocation (min/avg/max) = 4.997 | 4.997 | 4.997 Mbytes
Step Elapsed Temp PotEng KinEng TotEng Press Volume Density Pxx Pyy Pzz Lx Ly Lz 
       0        0    297.60887   -17391.511    149.22112    -17242.29    -1667.796    37058.468    1.0275611   -2225.5493   -68.401827    -2709.437    33.339761    33.339761    33.339761 
     100      100    305.64144   -17384.716    153.24865   -17231.467   -2258.2068    38773.851   0.98210109   -3823.1602    12.304425   -2963.7646    33.275606    33.285967    35.006749 
     200      200    310.71262   -17378.919    155.79134   -17223.128    -2560.563    40228.345    0.9465923   -2538.3921   -1142.8048   -4000.4922    33.093326    33.146416    36.673737 
     300      300    314.68668   -17374.443    157.78394   -17216.659   -3585.5548    41481.391   0.91799817   -1428.3005   -3979.5198   -5348.8441     32.83981    32.945215    38.340725 
     400      400    309.85581    -17365.29    155.36174   -17209.928   -3165.7356    42705.752   0.89167944   -1204.4072   -3073.1481   -5219.6515    32.607316     32.73615    40.007714 
     500      500    312.26195   -17360.095    156.56817   -17203.527   -4351.1266    43894.395   0.86753311   -1765.6507   -3023.1581   -8264.5711    32.385818    32.522333    41.674702 
     600      600    317.82997   -17357.927    159.35998   -17198.567    -3344.691    45041.699   0.84543528   -3132.0356   -1083.7967   -5818.2408     32.16144    32.312714     43.34169 
     700      700    318.49848   -17354.233    159.69517   -17194.538   -2206.9233    46197.623    0.8242814    -2586.503     1414.199   -5448.4659      31.9566    32.119059    45.008678 
     800      800     313.5899   -17348.428    157.23401   -17191.194   -2915.3671    47382.623    0.8036668   -3665.3004   -2683.6353   -2397.1656    31.770738    31.952238    46.675666 
     900      900    320.92117   -17350.022    160.90991   -17189.112   -2542.4077    48548.225   0.78437143   -2144.0014    -1587.178   -3896.0436    31.597547    31.782606    48.342654 
    1000     1000    321.79414   -17348.743    161.34761   -17187.395   -893.10934    49712.477   0.76600168   -385.25053    1199.0602   -3493.1377    31.454641    31.602899    50.009642 
    1100     1100    321.72973   -17348.144    161.31532   -17186.828   -1239.3223    50837.931   0.74904388   -784.32128     162.9832   -3096.6288    31.300165    31.430194     51.67663 
    1200     1200    317.26781   -17345.576    159.07811   -17186.498   -1968.3212    51923.581   0.73338241   -982.71351   -2260.0436   -2662.2065    31.119752    31.278509    53.343618 
    1300     1300    315.93506   -17345.089    158.40987   -17186.679    -1120.891    52996.601   0.71853365     369.7502   -2045.4337   -1686.9895    30.939618    31.137707    55.010606 
    1400     1400    320.45455   -17346.948    160.67595   -17186.272   -574.85284    54011.844   0.70502761    792.62576    1118.1405   -3635.3248    30.767377    30.973275    56.677594 
    1500     1500    311.79823   -17342.702    156.33567   -17186.367   -1553.4364    55012.144   0.69220791   -349.37873   -318.16156   -3992.7688    30.606766    30.806375    58.344582 
    1600     1600    312.63036   -17343.359     156.7529   -17186.606   -935.16116     56033.79   0.67958711   -142.06963   -608.05116   -2055.3627    30.458156    30.655712     60.01157 
    1700     1700    316.85349   -17345.865    158.87037   -17186.995    240.09066    57040.883   0.66758856    524.84101      659.736   -464.30503    30.299769     30.52198    61.678558 
    1800     1800     318.1527   -17347.361     159.5218   -17187.839   -1119.5591    57950.415   0.65711076   -1147.0646   -623.04852   -1588.5641      30.1209    30.371939    63.345546 
    1900     1900    313.82732   -17345.833    157.35305    -17188.48   -2363.5445    58790.829   0.64771738   -2208.8879   -2174.8921   -2706.8534    29.947072    30.196605    65.012534 
    2000     2000    313.37738   -17345.831    157.12745   -17188.704   -1037.5001    59674.308   0.63812791    21.006101   -1686.7316   -1446.7748    29.794074    30.037585    66.679523 
    2100     2100    315.05605   -17346.726    157.96914   -17188.757   -2048.7422    60575.981   0.62862938   -2031.1606   -1050.1498   -3064.9162    29.667327    29.874847    68.346511 
    2200     2200    315.20155   -17346.859    158.04209   -17188.817   -1019.5131    61385.876   0.62033555   -1239.5016   -314.20708   -1504.8307    29.522685    29.698247    70.013499 
    2300     2300    316.30273   -17347.644    158.59422    -17189.05   -1060.0368    62171.615   0.61249561   -1386.1059   -712.39676   -1081.6077     29.38731    29.514224    71.680487 
    2400     2400    307.32607   -17343.797    154.09332   -17189.704     654.9589    62992.335   0.60451547    577.41733    970.89105    416.56832    29.252555     29.35883    73.347475 
    2500     2500    305.84787   -17343.132    153.35215    -17189.78   -990.48393    63857.714   0.59632327   -49.231893   -268.34871   -2653.8712    29.118082    29.235168    75.014463 
    2600     2600    308.53109   -17343.439    154.69752   -17188.742   -1247.8616    64704.458   0.58851959   -1379.3355    -628.9739   -1735.2755    28.982153    29.114761    76.681451 
    2700     2700    307.87494   -17342.633    154.36853   -17188.265   -1538.7611    65544.866   0.58097367   -987.69031   -1031.1284   -2597.4647    28.843341    29.004325    78.348439 
    2800     2800     308.9845   -17342.215    154.92486    -17187.29   -1285.1962    66423.811     0.573286   -99.348885    229.77522    -3986.015    28.721969     28.90253    80.015427 
    2900     2900    314.07313   -17344.691     157.4763   -17187.215   -2098.5018    67226.432    0.5664415   -2208.6025     513.9248   -4600.8278    28.589162    28.787906    81.682415 
    3000     3000     306.1357   -17340.589    153.49647   -17187.092   -393.87023    67972.075   0.56022773    689.09899    92.004717   -1962.7144    28.448013    28.666594    83.349403 
    3100     3100    306.57444   -17339.632    153.71646   -17185.916   -429.29594    68808.179   0.55342027   -437.84485    526.33989   -1376.3829    28.347479    28.551107    85.016391 
    3200     3200     306.7538   -17338.858    153.80639   -17185.052   -1036.6277    69543.812   0.54756621    219.97679   -712.74267   -2617.1171    28.221196    28.428061    86.683379 
    3300     3300     307.3298   -17339.195    154.09519   -17185.099   -1530.9412    70232.115   0.54219983   -508.65131    -342.2769   -3741.8955    28.088566    28.300742    88.350367 
    3400     3400    306.38046   -17338.069    153.61919    -17184.45   -1334.0901    70873.687   0.53729167    -825.9102   -150.10822   -3026.2517    27.958512    28.160783    90.017355 
    3500     3500    311.21985   -17340.161    156.04567   -17184.115   -1277.7608    71496.943   0.53260797   -308.21523   -981.02938   -2544.0379     27.81903    28.031756    91.684344 
    3600     3600    307.83926   -17337.909    154.35063   -17183.558   -1552.1355    72272.242   0.52689442   -768.24374   -1174.3399   -2713.8228      27.7247     27.92442    93.351332 
    3700     3700    309.32702   -17338.455     155.0966   -17183.359   -628.72696    73151.819   0.52055905    406.54397    642.85172   -2935.5766     27.65913    27.834234     95.01832 
    3800     3800    310.51334   -17337.777    155.69142   -17182.085   -952.39841    74024.125   0.51442474   -129.90992   -750.53499   -1976.7503    27.600931    27.738889    96.685308 
    3900     3900    315.96674   -17340.304    158.42576   -17181.879   -1337.1641    74780.982   0.50921825   -210.79839   -581.18463   -3219.5092    27.528088    27.620442    98.352296 
    4000     4000    310.87681   -17336.909    155.87366   -17181.036   -904.54467    75414.266   0.50494214    404.83124   -72.391382   -3046.0739    27.426678    27.491382    100.01928 
    4100     4100    308.66193   -17334.385    154.76312   -17179.622   -2386.1036    76073.713   0.50056504   -416.30801   -540.59717   -6201.4056    27.324522    27.379135    101.68627 
    4200     4200    313.05443   -17335.378    156.96552   -17178.413   -1987.2814    76672.545    0.4966555   -1529.8386   -1034.0181   -3397.9877    27.214311     27.25953    103.35326 
    4300     4300     313.6652   -17335.551    157.27176   -17178.279   -2457.8461     77252.68   0.49292583   -1234.8458   -864.93986   -5273.7525    27.090782    27.153072    105.02025 
    4400     4400    309.77776   -17333.828     155.3226   -17178.506   -2248.1261    77850.001   0.48914374   -1359.5128   -1117.1526    -4267.713    26.971651    27.054445    106.68724 
    4500     4500    312.70977   -17335.568    156.79271   -17178.775   -2199.2584    78454.038   0.48537771   -1305.4916   -1200.6158   -4091.6679    26.850833    26.965699    108.35422 
    4600     4600    311.49322   -17334.888    156.18273   -17178.706    -2844.929     79140.58   0.48116707   -1018.2125   -2442.7504   -5073.8242    26.747406    26.893117    110.02121 
    4700     4700    306.28306    -17332.52    153.57036   -17178.949   -1719.9935    79819.404   0.47707499   -761.66979   -286.28802   -4112.0226    26.654705    26.811882     111.6882 
    4800     4800    310.55084   -17333.919    155.71022   -17178.209   -2210.2865    80395.228   0.47365798   -988.00124   -791.99304   -4850.8652    26.560398    26.702645    113.35519 
    4900     4900    309.30589   -17332.052      155.086   -17176.966    -2155.583    80887.925   0.47077288   -847.28087   -734.94193   -4884.5263    26.466259    26.571101    115.02218 
    5000     5000     317.1629   -17336.776    159.02551   -17177.751   -1646.4504    81318.021   0.46828293   -1150.1442    -271.0731    -3518.134    26.372518    26.424372    116.68916 
    5100     5100    312.79268   -17335.501    156.83428   -17178.667   -1597.2657    81669.142   0.46626964   -1185.2741    92.460773   -3698.9838    26.256677    26.280123    118.35615 
    5200     5200    314.13205   -17336.252    157.50584   -17178.746    -1433.751    82125.073   0.46368106     457.8554   -267.25206   -4491.8564    26.146758     26.16935    120.02314 
    5300     5300    312.22907   -17335.469    156.55169   -17178.917   -1289.6088    82624.397    0.4608789   -381.33264    994.40117    -4481.895    26.041845    26.072411    121.69013 
    5400     5400    309.90955   -17334.584    155.38868   -17179.195   -1998.6662    83095.276   0.45826722   -392.52466   -1009.2375   -4594.2364     25.94072    25.967497    123.35712 
    5500     5500    312.40704   -17335.645    156.64092   -17179.004   -2551.3944    83593.902   0.45553372   -958.80581    -504.6919   -6190.6856    25.847711    25.867756     125.0241 
    5600     5600    309.96631   -17333.421    155.41714   -17178.004   -2086.8765    84064.991   0.45298097   -517.12381   -476.76378    -5266.742    25.741524    25.777146    126.69109 
    5700     5700    309.30704   -17331.683    155.08658   -17176.596   -2631.1818    84537.171   0.45045086    -252.6019   -454.55617   -7186.3872    25.634552     25.69205    128.35808 
    5800     5800      304.378   -17326.867    152.61516   -17174.251   -3350.9135    84930.557   0.44836444   -1771.0127   -900.34452   -7381.3832    25.519241    25.595825    130.02507 
    5900     5900    311.08867   -17328.484    155.97989   -17172.504   -1968.1525    85293.298    0.4464576    650.93659    274.86558   -6830.2598    25.397099    25.501823    131.69206 
    6000     6000    316.02402   -17329.834    158.45448    -17171.38    -1828.751    85696.701   0.44435597    341.70192    760.40322   -6588.3583    25.280261    25.419094    133.35905 
    6100     6100    318.89976   -17330.631    159.89637   -17170.734   -2393.8621    86167.557   0.44192783    399.96228   -295.75711   -7285.7915    25.175637    25.348123    135.02603 
    6200     6200    317.13955   -17328.572     159.0138   -17169.559   -2773.8135    86622.235   0.43960816    402.17861   -57.513972   -8666.1051    25.076082    25.271054    136.69302 
    6300     6300    317.44888   -17328.787     159.1689   -17169.618   -2824.6595    87046.642   0.43746479   -961.25172   -412.97795   -7099.7488    24.988054    25.177291    138.36001 
    6400     6400    326.92447    -17333.43    163.91996    -17169.51   -2612.5247    87382.885   0.43578146   -213.77365    83.320736   -7707.1213    24.893493    25.068524      140.027 
    6500     6500    323.33182   -17332.374    162.11861   -17170.256   -2037.5654    87732.224   0.43404623   -164.62076    593.78566   -6541.8612    24.806375    24.959991    141.69399 
    6600     6600    321.10493    -17332.06    161.00204   -17171.058   -2946.0593     88138.62    0.4320449    163.26434   -1026.8854   -7974.5568    24.729728     24.86085    143.36097 
    6700     6700    320.66384   -17332.357    160.78088   -17171.576   -3324.7069    88592.405   0.42983189   -1690.8715   -803.21462   -7480.0347    24.649461    24.782055    145.02796 
    6800     6800    325.35503   -17336.307    163.13304   -17173.174   -2759.8325     88900.95   0.42834009   -991.20334   -321.67478   -6966.6194    24.532045    24.703443    146.69495 
    6900     6900    322.10163   -17336.632    161.50179    -17175.13   -2883.4167    89140.848   0.42718733   -1071.4556   -118.58606   -7460.2083    24.402446    24.621863    148.36194 
    7000     7000    327.12421   -17341.198    164.02011   -17177.178   -2058.7298    89351.254   0.42618139   -1060.3989   -537.81056     -4577.98    24.262178    24.546855    150.02893 
    7100     7100    319.33205   -17339.439    160.11312   -17179.326   -2156.4666    89626.537   0.42487239   -994.23801    65.328424   -5540.4903    24.141072     24.47407    151.69591 
    7200     7200    321.17169   -17342.182    161.03552   -17181.146   -2233.0968    89881.678   0.42366634    -422.5358   -682.56722   -5594.1874    24.032901    24.386229     153.3629 
    7300     7300    317.28574   -17342.409     159.0871   -17183.322   -1150.2678    90206.804   0.42213935    327.98183   -597.88705   -3180.8981    23.944968    24.300185    155.02989 
    7400     7400    319.13929   -17344.937    160.01647   -17184.921    -1713.437     90589.39   0.42035653     199.6707   -356.26908   -4983.7126    23.875166    24.214226    156.69688 
    7500     7500    315.75448   -17345.312    158.31933   -17186.993   -686.98152    90933.138   0.41876748    424.92431    345.91677   -2831.7856     23.80341    24.122755    158.36387 
    7600     7600    309.15457   -17343.136    155.01013   -17188.126   -1827.1878    91253.115   0.41729908    38.953717   -868.56544   -4651.9516    23.736195    24.023312    160.03085 
    7700     7700    310.21834   -17344.421    155.54351   -17188.878   -1890.2956    91463.809    0.4163378   -704.27745   -864.44607   -4102.1633    23.641969    23.925522    161.69784 
    7800     7800    311.08561    -17345.33    155.97836   -17189.351   -2031.1185     91634.99   0.41556005   -884.98983   -505.91482   -4702.4508    23.531052     23.83754    163.36483 
    7900     7900     312.6351    -17346.73    156.75527   -17189.974   -1775.8852    91832.289   0.41466723   -697.14752   -318.54795   -4311.9602     23.41405    23.765731    165.03182 
    8000     8000    309.15523     -17345.8    155.01046   -17190.789   -1876.5037    92185.021   0.41308057   -756.96277   -583.55923   -4288.9891    23.309203    23.724684    166.69881 
    8100     8100     306.3486   -17344.548    153.60322   -17190.944   -1206.0674    92660.112   0.41096261    69.486805    543.03609   -4230.7251     23.22184    23.699672    168.36579 
    8200     8200    310.24956   -17345.932    155.55916   -17190.373   -1736.0261    93242.356   0.40839639   -500.26714    606.80581    -5314.617    23.155696    23.682238    170.03278 
    8300     8300    306.10375   -17343.961    153.48045    -17190.48   -1013.4761    93706.449   0.40637375   -427.65929    320.88867   -2933.6578    23.072282    23.654252    171.69977 
    8400     8400    308.10339   -17345.282    154.48307   -17190.799   -312.00214    94043.686   0.40491651    876.66679    824.32692   -2637.0001     22.98106    23.604443    173.36676 
    8500     8500    308.20997   -17345.144    154.53651   -17190.608   -931.45092     94548.95   0.40275266    265.10941    982.82545   -4042.2876    22.919392    23.568493    175.03375 
    8600     8600    305.58631   -17344.866    153.22101   -17191.645   -911.24337    95109.486     0.400379   -239.97864    388.82262   -2882.5741    22.869014    23.536292    176.70073 
    8700     8700     304.4595   -17344.249    152.65602   -17191.593   -709.64701     95638.07   0.39816614    399.51392    87.113725   -2615.5687    22.816813    23.499551    178.36772 
    8800     8800    308.97181   -17346.781     154.9185   -17191.863   -1126.7794    96194.068   0.39586475   -264.14409   -58.638962    -3057.555    22.776355     23.45891    180.03471 
    8900     8900    306.04462   -17345.384    153.45081   -17191.934   -915.99632    96719.863   0.39371273    132.89782    93.561276   -2974.4481    22.733195    23.415111     181.7017 
    9000     9000    308.68501   -17346.926     154.7747   -17192.152   -1158.7124    97195.992   0.39178407    255.90923    225.20104   -3957.2474    22.688745    23.362145    183.36869 
    9100     9100    299.04449    -17342.52    149.94094   -17192.579   -869.00293    97707.912    0.3897314    39.569676    257.22533   -2903.8038    22.645596    23.317958    185.03568 
    9200     9200    302.93156   -17342.778    151.88992   -17190.888   -1033.9383    98185.799   0.38783451   -596.89875   -144.33931   -2360.5769     22.59452    23.275287    186.70266 
    9300     9300    303.88976   -17343.138    152.37036   -17190.767   -533.64917    98550.967   0.38639744   -8.2007327    516.08379   -2108.8306      22.5324    23.218946    188.36965 
    9400     9400    303.88913   -17343.221    152.37004   -17190.851   -436.58929    98903.532   0.38502003     221.9965    665.42794   -2197.1923    22.463075    23.168891    190.03664 
    9500     9500     305.9504   -17344.737    153.40356   -17191.333   -1308.0199    99338.722   0.38333331   -173.31655    -535.4899   -3215.2532    22.393333    23.140328    191.70363 
    9600     9600    305.42633   -17344.669     153.1408   -17191.528   -2286.9554    99637.046   0.38218557   -704.31312   -889.61433   -5266.9388       22.307    23.098788    193.37062 
    9700     9700    305.12662   -17343.779    152.99052   -17190.789   -503.79569    99822.553   0.38147533    680.93058   -102.29527   -2090.0224    22.204285    23.050138     195.0376 
    9800     9800    308.53094   -17345.832    154.69745   -17191.134   -1423.9996    100174.06   0.38013673   -282.11928    -129.6387   -3860.2409    22.131888    23.010302    196.70459 
    9900     9900    309.29623   -17346.768    155.08116   -17191.686   -615.98577    100411.69   0.37923714    229.38839    666.56592   -2743.9116    22.048114    22.957964    198.37158 
   10000    10000    306.77485   -17345.853    153.81694   -17192.036   -1382.8537    100712.12   0.37810585   -488.51642    452.56685   -4112.6115    21.966197    22.919921    200.03857 
   10100    10100    306.05934   -17344.772    153.45819   -17191.314   -1191.4545    101091.49   0.37668692   -636.11965   -103.16289   -2835.0809    21.891757    22.893706    201.70556 
   10200    10200    301.97082   -17342.883     151.4082   -17191.475   -1161.1464    101493.79   0.37519381   -292.00071   -435.05289   -2756.3856    21.822803    22.868444    203.37254 
   10300    10300    304.17559   -17343.326    152.51367   -17190.813   -1371.2301    101785.14   0.37411985   -234.61582   -411.45263   -3467.6219    21.755936     22.81755    205.03953 
   10400    10400    304.82644   -17342.374    152.84001   -17189.534   -2005.8105    101894.15   0.37371961   -146.90642   -360.33007   -5510.1951     21.67644    22.740872    206.70652 
   10500    10500    304.16608    -17342.07     152.5089   -17189.561   -1231.5113    102048.87   0.37315299   -646.66848    306.90733   -3354.7727    21.597658    22.675614    208.37351 
   10600    10600    302.12462   -17341.188    151.48532   -17189.703   -1153.1644    102284.09   0.37229487   -186.66282    130.71281   -3403.5433     21.51895    22.629969     210.0405 
   10700    10700    300.65734   -17341.009    150.74962   -17190.259   -690.60991    102403.11   0.37186215    6.0283046   -464.43947   -1613.4186     21.43153    22.569595    211.70748 
   10800    10800    304.58115   -17343.116    152.71702   -17190.399   -1643.3067    102387.27   0.37191967    -967.3991   -496.80467   -3465.7163    21.341234    22.484539    213.37447 
   10900    10900    303.94855   -17342.864    152.39983   -17190.465   -995.17515    102441.44   0.37172301   -247.40749   -353.27584   -2384.8421    21.247686    22.420322    215.04146 
   11000    11000    302.75322   -17342.733     151.8005   -17190.932   -1071.9225    102587.15   0.37119503   -1037.0414   -353.73699   -1824.9891    21.160251    22.371562    216.70845 
   11100    11100    300.67447   -17341.297    150.75821   -17190.539   -1025.6433    102712.46   0.37074217   -574.70826   -952.42041   -1549.8013    21.072059    22.320935    218.37544 
   11200    11200    299.14892   -17339.064     149.9933   -17189.071   -1054.3839    102836.52   0.37029494   -208.28905   -489.18105   -2465.6816     20.99807     22.25674    220.04242 
   11300    11300    300.16838   -17338.304    150.50446     -17187.8   -967.58176    103004.73   0.36969023    210.07495    -155.6869   -2957.1333      20.9304    22.197062    221.70941 
   11400    11400     300.7073   -17336.982    150.77467   -17186.208   -1160.3833    103142.63   0.36919594   0.42758233   -304.24927   -3177.3281    20.871409    22.123262     223.3764 
   11500    11500    307.86874   -17340.463    154.36542   -17186.097     -569.739     103313.1   0.36858676    555.00665   -80.336767   -2183.8869    20.819743    22.050263    225.04339 
   11600    11600    307.07071   -17341.468    153.96528   -17187.503   -556.66569    103559.49   0.36770982     307.2368    50.322158    -2027.556    20.765983    21.997129    226.71038 
   11700    11700    305.29637   -17341.195    153.07563   -17188.119   -555.44895    103727.39   0.36711461    631.17545    26.003778   -2323.5261    20.708657    21.932517    228.37736 
   11800    11800    308.64736   -17343.801    154.75582   -17189.045   -379.44991    103754.85   0.36701745    546.18225    588.97366   -2273.5057    20.638836    21.853029    230.04435 
   11900    11900    300.95098   -17340.869    150.89685   -17189.972   -1090.2575    103772.33   0.36695563    340.20686   -947.32683   -2663.6525    20.564844    21.777542    231.71134 
   12000    12000    305.11617   -17343.371    152.98528   -17190.386   -457.70688    103834.43   0.36673618    754.57679   -419.16484   -1708.5326     20.49427    21.709428    233.37833 
   12100    12100    301.12158   -17341.497    150.98239   -17190.515   -794.47756    103974.69   0.36624145     325.5408   -190.74357   -2518.2299    20.433463    21.648811    235.04532 
   12200    12200    303.47596   -17341.938    152.16288   -17189.776   -1015.0726     104137.1   0.36567025   -320.98924   -597.86294   -2126.3656     20.39266    21.573012    236.71231 
   12300    12300    299.88242   -17340.384    150.36108   -17190.022   -439.96872    104269.94    0.3652044    298.93372    120.46571   -1739.3056    20.339456    21.505585    238.37929 
   12400    12400    306.75886   -17343.524    153.80893   -17189.715   -930.37999    104566.19   0.36416975   -366.39287   -216.37116   -2208.3759    20.289796    21.469335    240.04628 
   12500    12500    300.69056   -17340.631    150.76628   -17189.865   -1541.9875    104846.99   0.36319442   -408.42095   -928.14557    -3289.396    20.238309    21.432916    241.71327 
   12600    12600    303.37956   -17341.073    152.11454   -17188.959   -595.85343    104817.38   0.36329702    30.459615    328.85977   -2146.8797     20.15657    21.366398    243.38026 
   12700    12700    302.47237   -17339.739    151.65968   -17188.079   -769.66749     104763.1   0.36348524   -277.39147    -237.7945   -1793.8165    20.067319    21.304393    245.04725 
   12800    12800     305.6561    -17340.06      153.256   -17186.804   -1117.0568    104801.41   0.36335236   -724.92538   -234.41461   -2391.8303    19.984544    21.255861    246.71423 
   12900    12900    301.89897    -17338.71    151.37217   -17187.338   -1305.5801    104730.78   0.36359741   -798.36279    -1103.129   -2015.2484    19.891876    21.197266    248.38122 
   13000    13000    302.01845   -17338.993    151.43208   -17187.561   -900.13028    104552.04   0.36421901   -498.59686   -189.48847   -2012.3055    19.791905    21.126189    250.04821 
   13100    13100    301.47517   -17339.616    151.15968   -17188.456   -711.56941    104368.83   0.36485838   -590.91139   -310.25232   -1233.5445    19.695431    21.052122     251.7152 
   13200    13200    300.49082   -17339.854    150.66613   -17189.188    -1059.231    104303.62   0.36508647     -894.043     288.0723   -2571.7223    19.611313    20.990203    253.38219 
   13300    13300    301.27236   -17340.118    151.05799    -17189.06   -309.24217    104309.29   0.36506663   -415.09663    708.26816    -1220.898    19.529441    20.941571    255.04917 
   13400    13400    300.54047   -17340.127    150.69102   -17189.436   -651.38803    104343.47   0.36494704    153.78924    473.21744   -2581.1708     19.43822    20.910074    256.71616 
   13500    13500    305.54648   -17341.963    153.20104   -17188.762   -836.48152     104476.3   0.36448306   -525.20774    326.96045   -2311.1973    19.370391    20.874457    258.38315 
   13600    13600    303.65063   -17341.276    152.25045   -17189.026   -858.43532    104523.57   0.36431822   -207.45013   -86.545758   -2281.3101    19.301779    20.823792    260.05014 
   13700    13700    303.09586   -17341.511     151.9723   -17189.539   -745.32681    104416.57   0.36469156    -564.6089    256.03456   -1927.4061    19.218238    20.759826    261.71713 
   13800    13800    300.00215   -17340.153    150.42111   -17189.732   -890.45307     104412.8   0.36470473    -156.6436   -679.98617   -1834.7294     19.13772    20.714477    263.38411 
   13900    13900    298.75737   -17339.459    149.79697   -17189.662   -991.19213    104429.47    0.3646465   -165.98923   -787.10241   -2020.4847    19.064261    20.666812     265.0511 
   14000    14000    298.64761    -17339.26    149.74194   -17189.518   -1020.3306    104450.33   0.36457368   -586.80376   -294.43603   -2179.7519     18.98858    20.623618    266.71809 
   14100    14100    300.35965   -17339.548    150.60036   -17188.948   -1339.6571    104511.38   0.36436073   -369.14921   -839.81191   -2810.0101    18.912163    20.590363    268.38508 
   14200    14200    302.65998   -17340.922    151.75375   -17189.168   -355.89783    104520.55   0.36432876    131.97025     616.2268   -1815.8906    18.840945    20.542414    270.05207 
   14300    14300    303.19824   -17341.108    152.02363   -17189.085   -1000.6664    104505.82   0.36438012   -37.216331   -465.84351   -2498.9393    18.771066    20.489503    271.71905 
   14400    14400    302.29632   -17340.022     151.5714   -17188.451   -1318.2884    104415.07    0.3646968   -737.78393   -931.46121   -2285.6199    18.700022    20.424185    273.38604 
   14500    14500    302.28216   -17339.399    151.56431   -17187.835   -79.966742    104233.88   0.36533074   -714.67048    204.37213    270.39813    18.612073    20.360936    275.05303 
   14600    14600    303.67445   -17339.895     152.2624   -17187.633   -1155.3735    104182.21   0.36551193   -423.05016   -1083.6285   -1959.4417    18.531022    20.316721    276.72002 
   14700    14700    303.04645   -17340.424    151.94752   -17188.477   -859.44395    104186.33   0.36549749    217.93961   -156.44614   -2639.8253    18.459834    20.273745    278.38701 
   14800    14800    300.90665   -17340.854    150.87463   -17189.979   -1282.0717    104324.74   0.36501255   -825.79859   -591.44187   -2428.9745    18.409031    20.235533    280.05399 
   14900    14900    303.32598   -17342.058    152.08768    -17189.97   -1139.7191    104440.49   0.36460803   -694.03949   -618.43148   -2106.6862    18.356347    20.195911    281.72098 
   15000    15000     301.7655   -17341.728    151.30525   -17190.423   -87.010175    104319.69   0.36503025   -85.533492   -190.57624    15.079209    18.283076    20.134256    283.38797 
   15100    15100    300.57242   -17341.489    150.70704   -17190.782   -920.92575    104297.38   0.36510831   -162.40877   -628.07812   -1972.2904    18.221535    20.079822    285.05496 
   15200    15200    304.98625   -17343.019    152.92014   -17190.099    -555.9156    104164.38   0.36557449    92.963902    333.05063   -2093.7613    18.158269    20.007087    286.72195 
   15300    15300    308.41734   -17345.007    154.64048   -17190.367   -223.73592    104053.14   0.36596531    27.563825    206.80464   -905.57624    18.093119    19.941746    288.38894 
   15400    15400     306.4984   -17345.686    153.67833   -17192.008   -355.67002    103877.64   0.36658363    331.75098   -600.01936   -798.74168    18.016462    19.877914    290.05592 
   15500    15500    299.11727   -17343.187    149.97743    -17193.21   -227.81114     103777.6   0.36693702    259.22296    388.95183   -1331.6082    17.945993    19.822826    291.72291 
   15600    15600    308.86353   -17347.758    154.86421   -17192.893   -655.82771    103849.93   0.36668142     474.2621   -569.58044   -1872.1648    17.888466    19.787365     293.3899 
   15700    15700    299.76199   -17343.909    150.30069   -17193.608   -748.53874    104007.37   0.36612637    92.967801   -306.44854   -2032.1355    17.840381    19.758512    295.05689 
   15800    15800    302.90119   -17344.239    151.87469   -17192.364   -1381.8633    104301.91   0.36509247   -110.13774     -1264.29   -2771.1621    17.802176    19.745434    296.72388 
   15900    15900    299.23138   -17342.158    150.03465   -17192.124    -1471.161    104373.51     0.364842   -1314.7039    133.88233   -3232.6615    17.749194    19.707255    298.39086 
   16000    16000    307.07926   -17345.249    153.96957    -17191.28   -1387.9497    104257.95   0.36524642   -820.96953   -474.09876   -2868.7809    17.678114    19.654782    300.05785 
   16100    16100    304.31811   -17344.911    152.58513   -17192.326   -502.29516    104124.87   0.36571323   -281.91092     815.6216   -2040.5962     17.60223      19.6054    301.72484 
   16200    16200    304.00427   -17344.998    152.42777    -17192.57   -783.01459    104209.89   0.36541485    744.86202   -65.617125   -3028.2887    17.546625    19.575437    303.39183 
   16300    16300    305.94691   -17345.889    153.40181   -17192.487   -1105.2901    104357.79   0.36489696   -89.140264   -540.85978   -2685.8704    17.497488    19.550849    305.05882 
   16400    16400    306.48497   -17346.239    153.67159   -17192.567   -456.16476    104403.15   0.36473843    290.32326    681.04221   -2339.8598    17.438112    19.519281     306.7258 
   16500    16500    299.29248   -17342.765    150.06528   -17192.699   -1321.1935    104509.18   0.36436837   -312.84043    -266.1326   -3384.6075    17.386038    19.491695    308.39279 
   16600    16600    307.77094   -17347.184    154.31638   -17192.867   -671.80417    104580.94   0.36411838   -164.90642   -98.496814   -1752.0093    17.327973    19.465221    310.05978 
   16700    16700     300.2233   -17344.644    150.53199   -17194.112   -444.46298    104850.58   0.36318197    456.63181     -98.8077   -1691.2131    17.283749    19.460715    311.72677 
   16800    16800    305.84429   -17348.082    153.35036   -17194.731   -717.00924    105108.63   0.36229035     475.5495   -529.81565   -2096.7616    17.238911    19.455311    313.39376 
   16900    16900    301.00825   -17345.457    150.92557   -17194.531   -861.76643    105157.86   0.36212074    573.18808   -431.46795   -2727.0194    17.188437    19.418293    315.06074 
   17000    17000    301.21131   -17345.834    151.02738   -17194.807   -873.02839    104887.36   0.36305463   -94.268615   -277.64046   -2247.1761    17.116664    19.347191    316.72773 
   17100    17100    300.45515   -17345.212    150.64824   -17194.564   -1200.5589    104526.12   0.36430933   -115.40132   -601.52368   -2884.7516    17.035031    19.271523    318.39472 
   17200    17200    299.89521   -17344.036    150.36749   -17193.669   -612.90765    104347.34   0.36493351    488.92463     22.22313   -2349.8707    16.964679    19.217727    320.06171 
   17300    17300    301.05134   -17344.957    150.94717    -17194.01   -455.96348    104266.38   0.36521686     457.5108    4.3870621   -1829.7883    16.890128     19.18764     321.7287 
   17400    17400     308.1845   -17349.813    154.52374   -17195.289   -582.55845    104189.65   0.36548585   -189.41367   -113.01606   -1445.2456    16.816419    19.158293    323.39568 
   17500    17500    306.05688   -17351.182    153.45695   -17197.725   -1057.2249     104111.9   0.36575878     -794.251   -21.316714   -2356.1069    16.753017    19.117902    325.06267 
   17600    17600    303.72999   -17350.434    152.29025   -17198.144   -1069.9624    103881.64   0.36656949    287.99474   -432.40402   -3065.4779    16.690485      19.0494    326.72966 
   17700    17700    305.65632   -17351.634    153.25611   -17198.378   -145.97562    103775.15   0.36694567   -450.30138    595.46482    -583.0903    16.645178    18.984807    328.39665 
   17800    17800    301.34763   -17349.595    151.09573   -17198.499   -981.28306    103828.21   0.36675813   -817.10913    756.97565   -2883.7157    16.598805    18.951381    330.06364 
   17900    17900    299.00364   -17348.792    149.92045   -17198.871    -654.3562    103836.78   0.36672785   -177.39861    753.86826   -2539.5383    16.544525    18.919575    331.73062 
   18000    18000    297.17101   -17347.235    149.00157   -17198.233   -1101.7052    103700.75   0.36720894   -425.52948   -344.25106   -2535.3352    16.481437    18.872278    333.39761 
   18100    18100    305.53997   -17350.879    153.19777   -17197.682   -1671.5312    103581.32   0.36763232   -929.98164   -750.30777   -3334.3043    16.417761    18.829508     335.0646 
   18200    18200    311.75873    -17354.54    156.31586   -17198.224   -657.08456    103378.78    0.3683526    503.27045   -470.40095   -2004.1232    16.348288     18.77912    336.73159 
   18300    18300     302.6463   -17351.971    151.74689   -17200.224    -785.3137    103295.79   0.36864851    341.71475    219.69569   -2917.3515    16.286041    18.742978    338.39858 
   18400    18400    301.17616   -17352.624    151.00976   -17201.614   -826.46901    103180.23    0.3690614   -52.895458   -737.00891   -1689.5027    16.225518    18.699728    340.06557 
   18500    18500    303.36517     -17354.7    152.10733   -17202.592   -73.709872    102920.45   0.36999295    670.84384   -129.60869   -762.36476    16.157001    18.640371    341.73255 
   18600    18600    303.28405   -17355.174    152.06665   -17203.108   -650.67037    102764.89   0.37055303   -172.85466    313.36245   -2092.5189    16.102196    18.584888    343.39954 
   18700    18700    310.58929   -17359.694     155.7295   -17203.965   -474.99509    102789.24   0.37046526    376.57214    -325.9454    -1475.612    16.064899    18.542437    345.06653 
   18800    18800    301.27588   -17356.395    151.05976   -17205.336    34.071752    103046.94    0.3695388    376.63743    390.45166   -664.87384    16.050518     18.51613    346.73352 
   18900    18900    299.22041   -17355.082    150.02914   -17205.053   -311.67618     103243.8   0.36883418    26.549649   -65.842664   -895.73551    16.027636    18.489098    348.40051 
   19000    19000     305.7514   -17358.228    153.30378   -17204.924   -1374.1843    103429.99    0.3681702    132.33422    -1424.838   -2830.0489     16.00336    18.462204    350.06749 
   19100    19100    298.92669    -17355.65    149.88187   -17205.768   -480.85425    103448.03   0.36810601     532.7378   -400.13932   -1575.1612    15.975491    18.409969    351.73448 
   19200    19200    298.18331   -17355.389    149.50914    -17205.88    477.45623    103473.12   0.36801674    475.62062    1251.4414   -294.69331    15.951541    18.355092    353.40147 
   19300    19300    304.04634   -17357.961    152.44886   -17205.512   -174.72926     103728.4   0.36711106    469.51136    292.69041   -1286.3896    15.932986    18.335315    355.06846 
   19400    19400    301.05854   -17356.872    150.95078   -17205.921   -468.88885       104039   0.36601508    84.784414   -32.858945    -1458.592    15.912052    18.328364    356.73545 
   19500    19500    297.16586   -17354.883    148.99899   -17205.884   -298.44337    104146.21   0.36563829    343.02075   -486.96167    -751.3892    15.871623    18.308433    358.40243 
   19600    19600    301.84178   -17357.037     151.3435   -17205.694   -410.50273    104221.77   0.36537319   -446.22971   -141.85743   -643.42105    15.823584    18.292259    360.06942 
   19700    19700    302.16327   -17357.647    151.50469   -17206.142    227.77895    104180.91   0.36551651    719.44084    463.96899   -500.07297    15.767486    18.265579    361.73641 
   19800    19800     309.6134   -17362.545    155.24019   -17207.305   -1023.7537     104042.8    0.3660017   -1591.8754   -99.817945   -1379.5677    15.704727    18.230251     363.4034 
   19900    19900    300.08721   -17359.373    150.46376    -17208.91   -686.27668    103759.55   0.36700083   -271.10908    204.57102    -1992.292    15.629618    18.184574    365.07039 
   20000    20000    301.65324   -17359.966    151.24896   -17208.717    223.45646    103569.71   0.36767353    841.57028    787.40901   -958.60992    15.571563    18.136162    366.73737 
Loop time of 12003.6 on 1 procs for 20000 steps with 3880 atoms

Performance: 0.144 ns/day, 166.717 hours/ns, 1.666 timesteps/s
0.5% CPU use with 1 MPI tasks x 1 OpenMP threads

MPI task timing breakdown:
Section |  min time  |  avg time  |  max time  |%varavg| %total
---------------------------------------------------------------
Pair    | 11991      | 11991      | 11991      |   0.0 | 99.90
Neigh   | 1.6808     | 1.6808     | 1.6808     |   0.0 |  0.01
Comm    | 0.51171    | 0.51171    | 0.51171    |   0.0 |  0.00
Output  | 4.3363     | 4.3363     | 4.3363     |   0.0 |  0.04
Modify  | 5.2479     | 5.2479     | 5.2479     |   0.0 |  0.04
Other   |            | 0.3843     |            |       |  0.00

Nlocal:        3880.00 ave        3880 max        3880 min
Histogram: 1 0 0 0 0 0 0 0 0 0
Nghost:        1551.00 ave        1551 max        1551 min
Histogram: 1 0 0 0 0 0 0 0 0 0
Neighs:        5138.00 ave        5138 max        5138 min
Histogram: 1 0 0 0 0 0 0 0 0 0

Total # of neighbors = 5138
Ave neighs/atom = 1.3242268
Neighbor list builds = 1035
Dangerous builds = 0
unfix NPT

Total wall time: 5:50:16
