LAMMPS (29 Sep 2021 - Update 1)

units metal
boundary p p p
atom_style atomic
atom_modify map yes
read_data input/nylon.data
Reading data file ...
  orthogonal box = (21.773139 21.773139 21.773139) to (55.081743 55.081743 55.081743)
  1 by 1 by 1 MPI processor grid
  reading atoms ...
  3880 atoms
  reading velocities ...
  3880 velocities
  read_data CPU = 0.026 seconds

pair_style pfp_api v5.0.0 CRYSTAL_PLUS_D3
pair_coeff * * species C H N O

timestep 0.001

thermo 100
thermo_style custom step temp etotal pe ke lx ly lz vol press density
velocity all create 300 12345 dist gaussian mom yes
fix NPT all npt temp 300 300 0.1 iso 0.987 0.987 1.0
run 10000
Neighbor list info ...
  update every 1 steps, delay 10 steps, check yes
  max neighbors/atom: 2000, page size: 100000
  master list distance cutoff = 2.01
  ghost atom cutoff = 2.01
  binsize = 1.005, bins = 34 34 34
  1 neighbor lists, perpetual/occasional/extra = 1 0 0
  (1) pair pfp_api, perpetual
      attributes: half, newton on
      pair build: half/bin/atomonly/newton
      stencil: half/bin/3d
      bin: standard
Per MPI rank memory allocation (min/avg/max) = 3.387 | 3.387 | 3.387 Mbytes
Step Temp TotEng PotEng KinEng Lx Ly Lz Volume Press Density 
       0          300   -17179.214   -17329.634    150.42003    33.308604    33.308604    33.308604    36954.666    19022.024    1.0304474 
     100    338.58576   -17187.074   -17356.841    169.76694    33.396878    33.396878    33.396878    37249.257    7751.1098     1.022298 
     200    322.36033   -17198.211   -17359.842     161.6315    33.559652    33.559652    33.559652    37796.565    948.69224    1.0074948 
     300    306.44434   -17208.214   -17361.865    153.65122    33.698882    33.698882    33.698882    38268.944   -1157.4272   0.99505858 
     400     303.6651   -17215.005   -17367.262    152.25771    33.767284    33.767284    33.767284    38502.452   -1256.0012    0.9890238 
     500    293.21626   -17218.999   -17366.018    147.01866    33.775378    33.775378    33.775378    38530.147    -502.4873   0.98831289 
     600    292.78209   -17219.767   -17366.568    146.80097    33.744897    33.744897    33.744897    38425.924   -25.783733   0.99099351 
     700    300.33744   -17216.692   -17367.281    150.58922    33.747845    33.747845    33.747845    38435.997    1279.2538   0.99073379 
     800     296.9138   -17214.047    -17362.92    148.87261    33.765698    33.765698    33.765698    38497.028    1242.3014   0.98916315 
     900    303.14431   -17213.336   -17365.333    151.99659    33.784017    33.784017    33.784017     38559.72    765.26356   0.98755491 
    1000    300.50286   -17214.304   -17364.976    150.67217    33.818011    33.818011    33.818011    38676.236   -83.768666   0.98457982 
    1100    299.76635   -17216.454   -17366.757    150.30288     33.81412     33.81412     33.81412    38662.885    480.99732   0.98491982 
    1200    295.06593   -17218.183   -17366.129    147.94609    33.797618    33.797618    33.797618    38606.308   -2037.5934   0.98636318 
    1300    299.94726   -17216.825   -17367.218    150.39359    33.762871    33.762871    33.762871    38487.358   -1674.7273   0.98941168 
    1400    306.32071   -17213.583   -17367.172    153.58924    33.729994    33.729994    33.729994    38375.035   -338.93907   0.99230765 
    1500    303.18487   -17212.276   -17364.293    152.01693    33.702176    33.702176    33.702176    38280.168     966.6979   0.99476684 
    1600    298.79309   -17217.021   -17366.836    149.81489    33.697897    33.697897    33.697897    38265.589    437.66334   0.99514582 
    1700    296.37265   -17219.544   -17368.146    148.60128    33.724771    33.724771    33.724771    38357.211    507.63393   0.99276877 
    1800     301.1097   -17218.048   -17369.024    150.97644    33.772424    33.772424    33.772424    38520.039   -406.61433   0.98857224 
    1900    303.03483   -17214.321   -17366.263    151.94169    33.819138    33.819138    33.819138    38680.101   -17.609891   0.98448143 
    2000    301.07743   -17212.771   -17363.731    150.96025    33.842008    33.842008    33.842008    38758.624   -995.67722   0.98248691 
    2100    299.58117   -17214.026   -17364.236    150.21003    33.854875    33.854875    33.854875     38802.85    675.81349   0.98136712 
    2200    302.86571   -17214.971   -17366.827     151.8569    33.861813    33.861813    33.861813    38826.714    1134.5682   0.98076395 
    2300    299.59034   -17216.302   -17366.516    150.21463    33.870646    33.870646    33.870646    38857.106    397.42551   0.97999684 
    2400    300.07901   -17221.528   -17371.988    150.45965    33.857919    33.857919    33.857919    38813.321   -2508.2521   0.98110238 
    2500    297.49505   -17222.919   -17372.083    149.16405    33.817067    33.817067    33.817067    38672.996   -1654.7954   0.98466229 
    2600    297.39353   -17220.219   -17369.332    149.11315    33.760863    33.760863    33.760863    38480.493   -15.272753   0.98958818 
    2700    296.12905   -17218.648   -17367.127    148.47914    33.713753    33.713753    33.713753    38319.629    -1492.247   0.99374244 
    2800    298.49534   -17217.658   -17367.323    149.66559    33.691533    33.691533    33.691533    38243.914    182.90787   0.99570983 
    2900    296.05857   -17216.127   -17364.571     148.4438    33.707282    33.707282    33.707282     38297.57    640.04484   0.99431481 
    3000    302.24637   -17211.947   -17363.493    151.54636    33.757332    33.757332    33.757332     38468.42     669.8316   0.98989877 
    3100    307.30383   -17211.357   -17365.439    154.08217    33.801558    33.801558    33.801558    38619.813    43.935101   0.98601828 
    3200    298.36755   -17216.992   -17366.594    149.60152    33.825508    33.825508    33.825508    38701.963    2862.7344   0.98392532 
    3300    297.92254   -17217.628   -17367.006    149.37839    33.867401    33.867401    33.867401    38845.939   -511.56507   0.98027855 
    3400    297.15417   -17216.938   -17365.931    148.99313    33.905407    33.905407    33.905407    38976.863   -224.54029   0.97698578 
    3500     302.7474   -17214.181   -17365.978    151.79758    33.948483    33.948483    33.948483     39125.61   -311.40769   0.97327149 
    3600    302.65806   -17211.929   -17363.682    151.75278    33.959038    33.959038    33.959038    39162.116   -1172.7111   0.97236425 
    3700     301.4797   -17214.271   -17365.433    151.16195     33.93354     33.93354     33.93354    39073.967   -1976.8068   0.97455784 
    3800    296.63116   -17219.355   -17368.086     148.7309    33.895827    33.895827    33.895827    38943.833   -1217.6826   0.97781442 
    3900    298.25998   -17219.024   -17368.572    149.54759    33.873162    33.873162    33.873162    38865.766   -2086.5586   0.97977848 
    4000    302.32791   -17215.869   -17367.456    151.58724    33.877456    33.877456    33.877456    38880.546   -280.47316   0.97940604 
    4100    300.09614   -17213.181   -17363.649    150.46824    33.866812    33.866812    33.866812     38843.91   -1697.3587   0.98032976 
    4200     307.4358   -17214.312    -17368.46    154.14834     33.82159     33.82159     33.82159    38688.514    560.36323   0.98426735 
    4300    297.96744   -17216.778   -17366.179    149.40091    33.789629    33.789629    33.789629    38578.938    1254.4152   0.98706298 
    4400    306.92755   -17217.653   -17371.547     153.8935    33.782468    33.782468    33.782468    38554.415   -652.78999    0.9876908 
    4500    296.12401   -17218.727   -17367.203    148.47661    33.791596    33.791596    33.791596    38585.677    2181.0882   0.98689058 
    4600    297.00935   -17220.433   -17369.353    148.92052    33.834388    33.834388    33.834388    38732.452    621.40171    0.9831508 
    4700     291.0491   -17224.125   -17370.057    145.93205    33.865387    33.865387    33.865387    38839.008    565.50464   0.98045349 
    4800    295.94955   -17224.161    -17372.55    148.38913    33.877406    33.877406    33.877406    38880.375   -997.09952   0.97941034 
    4900    301.08388   -17218.851   -17369.815    150.96349    33.862972    33.862972    33.862972      38830.7   -1797.5793   0.98066327 
    5000    301.45073   -17216.346   -17367.494    151.14743    33.825171    33.825171    33.825171    38700.804    7.5590538   0.98395478 
    5100    302.41777   -17215.322   -17366.954     151.6323    33.828779    33.828779    33.828779    38713.192    806.65914   0.98363991 
    5200    299.90723    -17214.96   -17365.333    150.37352    33.844355    33.844355    33.844355    38766.689    1112.0034   0.98228252 
    5300    298.56547   -17216.037   -17365.738    149.70075    33.875432    33.875432    33.875432    38873.578   -989.80164   0.97958159 
    5400    290.28735   -17220.163   -17365.714    145.55011    33.877311    33.877311    33.877311    38880.048   -475.46383   0.97941859 
    5500     295.2747   -17221.092   -17369.143    148.05076    33.854779    33.854779    33.854779    38802.522    -1525.235   0.98137542 
    5600    300.21227   -17217.269   -17367.795    150.52646    33.825297    33.825297    33.825297    38701.238   -1246.3447   0.98394374 
    5700      301.204   -17215.302   -17366.326    151.02372    33.801546    33.801546    33.801546    38619.772   -530.01249   0.98601932 
    5800    300.24549     -17216.1   -17366.644    150.54312    33.773331    33.773331    33.773331    38523.142    1675.0239   0.98849261 
    5900    301.86422   -17216.924   -17368.279    151.35475    33.743946    33.743946    33.743946    38422.676    558.17994   0.99107728 
    6000    296.93269   -17218.442   -17367.324    148.88208    33.735245    33.735245    33.735245     38392.96    -1018.189   0.99184438 
    6100    293.74447   -17222.943   -17370.227     147.2835    33.750541    33.750541    33.750541    38445.207    -1457.836   0.99049647 
    6200    295.99234   -17222.347   -17370.757    148.41059    33.783913    33.783913    33.783913    38559.362   -1147.9527   0.98756409 
    6300    300.85165   -17217.712   -17368.559    150.84705    33.821914    33.821914    33.821914    38689.627    241.35473   0.98423903 
    6400    298.53549    -17216.49   -17366.176    149.68573      33.8587      33.8587      33.8587    38816.004   -142.85169   0.98103455 
    6500    302.38079   -17215.825   -17367.439    151.61376    33.878632    33.878632    33.878632    38884.596   -221.96892   0.97930403 
    6600    298.99731   -17215.862   -17365.779    149.91728    33.878023    33.878023    33.878023    38882.499    250.97965   0.97935684 
    6700     297.4969   -17217.469   -17366.634    149.16498     33.85432     33.85432     33.85432    38800.944    621.06032   0.98141533 
    6800    293.68056   -17220.463   -17367.714    147.25146    33.828743    33.828743    33.828743    38713.066    659.72778   0.98364313 
    6900      294.374   -17220.167   -17367.766    147.59915    33.810234    33.810234    33.810234    38649.558   -242.64978   0.98525943 
    7000    304.15457   -17215.358   -17367.861    152.50313    33.768087    33.768087    33.768087      38505.2    778.61081   0.98895322 
    7100    303.33356       -17214   -17366.091    152.09148    33.763931    33.763931    33.763931    38490.984    -1375.414   0.98931847 
    7200     305.6537   -17216.634   -17369.889    153.25479    33.750737    33.750737    33.750737    38445.879   -430.91172   0.99047913 
    7300    301.95773   -17219.333   -17370.734    151.40163    33.763876    33.763876    33.763876    38490.797   -1400.7336   0.98932328 
    7400    299.44987   -17219.357   -17369.501    150.14419    33.775318    33.775318    33.775318    38529.941    1214.9561   0.98831818 
    7500    305.54757   -17217.924   -17371.126    153.20158    33.782337    33.782337    33.782337    38553.968      713.401   0.98770225 
    7600    303.40337   -17216.426   -17368.552    152.12648    33.759068    33.759068    33.759068    38474.354   -333.86511   0.98974609 
    7700    305.03936    -17214.23   -17367.177    152.94677     33.74311     33.74311     33.74311    38419.821   -829.34167   0.99115093 
    7800    307.80366   -17215.012   -17369.345    154.33279    33.725796    33.725796    33.725796    38360.708    1442.2964   0.99267826 
    7900    299.31475   -17219.631   -17369.707    150.07645    33.705099    33.705099    33.705099    38290.129    2156.2114   0.99450805 
    8000    298.52033   -17221.411   -17371.089    149.67812    33.693264    33.693264    33.693264    38249.808    1098.4739   0.99555639 
    8100    295.60767   -17220.361   -17368.579    148.21772    33.689421    33.689421    33.689421    38236.722    1447.7781   0.99589712 
    8200    299.64227   -17217.229   -17367.469    150.24067     33.70815     33.70815     33.70815    38300.527   -99.993147   0.99423805 
    8300    310.75005   -17213.009   -17368.819    155.81011     33.74169     33.74169     33.74169    38414.971   -573.22236   0.99127606 
    8400    304.45839   -17214.736   -17367.392    152.65547    33.737066    33.737066    33.737066    38399.177    756.90552   0.99168379 
    8500    297.79322   -17217.608   -17366.922    149.31355    33.714893    33.714893    33.714893    38323.518   -831.99812   0.99364159 
    8600    303.53257   -17219.331   -17371.522    152.19126    33.671222    33.671222    33.671222    38174.789   -144.66078   0.99751282 
    8700    299.14737   -17219.976   -17369.968    149.99252    33.644103    33.644103    33.644103    38082.625    1382.6761    0.9999269 
    8800    304.24026   -17221.658   -17374.205     152.5461    33.627909    33.627909    33.627909    38027.659   -305.88797    1.0013722 
    8900    296.31952   -17224.838   -17373.412    148.57464    33.604681    33.604681    33.604681    37948.911    363.10986    1.0034502 
    9000    293.03762   -17223.912   -17370.841    146.92909    33.591258    33.591258    33.591258    37903.457    128.30593    1.0046535 
    9100    303.01842   -17218.714   -17370.648    151.93347     33.58107     33.58107     33.58107    37868.978    135.49633    1.0055682 
    9200    303.52768   -17218.274   -17370.463    152.18881    33.565001    33.565001    33.565001     37814.64    257.05188    1.0070132 
    9300    295.70441   -17220.235   -17368.501    148.26622    33.568859    33.568859    33.568859    37827.684   -751.36822    1.0066659 
    9400    293.95101   -17222.171   -17369.558    147.38707    33.606035    33.606035    33.606035      37953.5    1112.8592    1.0033288 
    9500      297.348   -17223.145   -17372.235    149.09032    33.653952    33.653952    33.653952    38116.079    580.02401   0.99904928 
    9600    300.64682   -17220.447   -17371.192    150.74435    33.681679    33.681679    33.681679    38210.365   -1012.3711   0.99658406 
    9700    308.86559   -17216.786   -17371.651    154.86524    33.669057    33.669057    33.669057    38167.426   -1004.9891   0.99770526 
    9800    305.33986    -17216.63   -17369.728    153.09743    33.613937    33.613937    33.613937    37980.277    239.47458    1.0026215 
    9900     302.0828   -17219.477   -17370.942    151.46435    33.564531    33.564531    33.564531    37813.053    764.18324    1.0070554 
   10000    294.01426    -17224.38   -17371.799    147.41878    33.540561    33.540561    33.540561      37732.1    220.89369    1.0092161 
Loop time of 5929.9 on 1 procs for 10000 steps with 3880 atoms

Performance: 0.146 ns/day, 164.719 hours/ns, 1.686 timesteps/s
0.5% CPU use with 1 MPI tasks x no OpenMP threads

MPI task timing breakdown:
Section |  min time  |  avg time  |  max time  |%varavg| %total
---------------------------------------------------------------
Pair    | 5926.3     | 5926.3     | 5926.3     |   0.0 | 99.94
Neigh   | 0.65183    | 0.65183    | 0.65183    |   0.0 |  0.01
Comm    | 0.30745    | 0.30745    | 0.30745    |   0.0 |  0.01
Output  | 0.014132   | 0.014132   | 0.014132   |   0.0 |  0.00
Modify  | 2.3101     | 2.3101     | 2.3101     |   0.0 |  0.04
Other   |            | 0.2777     |            |       |  0.00

Nlocal:        3880.00 ave        3880 max        3880 min
Histogram: 1 0 0 0 0 0 0 0 0 0
Nghost:        1542.00 ave        1542 max        1542 min
Histogram: 1 0 0 0 0 0 0 0 0 0
Neighs:        5242.00 ave        5242 max        5242 min
Histogram: 1 0 0 0 0 0 0 0 0 0

Total # of neighbors = 5242
Ave neighs/atom = 1.3510309
Neighbor list builds = 321
Dangerous builds = 0
unfix NPT

dump 1 all custom 100 tensile.lammpstrj id type element x y z vx vy vz fx fy fz
dump_modify 1 element C H N O

thermo_style custom step elapsed temp pe ke etotal press vol density pxx pyy pzz lx ly lz
fix NPT all npt temp 300 300 0.1 x 0.987 0.987 1.0 y 0.987 0.987 1.0 drag 1.0
fix DEFORM all deform 1 z erate 0.5 units box remap x
reset_timestep 0
run 20000
Per MPI rank memory allocation (min/avg/max) = 4.992 | 4.992 | 4.992 Mbytes
Step Elapsed Temp PotEng KinEng TotEng Press Volume Density Pxx Pyy Pzz Lx Ly Lz 
       0        0    294.01426   -17371.799    147.41878    -17224.38    220.89092      37732.1    1.0092161   -1448.9551    1854.1584    257.46936    33.540561    33.540561    33.540561 
     100      100    307.80072   -17368.551    154.33131    -17214.22   -125.90643    39457.791   0.96507788   -625.38006    1708.9629   -1461.3022    33.473253    33.471504    35.217589 
     200      200    305.23758   -17359.919    153.04616   -17206.873   -1061.7262    40942.225   0.93008725   -355.11733   -230.25621   -2599.8051    33.315408     33.30913    36.894617 
     300      300    306.41711   -17353.826    153.63757   -17200.189   -3030.4492    42307.636   0.90007017   -2692.0136   -3094.8544   -3304.4797    33.104901    33.132812    38.571645 
     400      400    316.64961    -17352.97    158.76815   -17194.202   -518.12054    43590.486   0.87358148   -192.91546   -344.53514    -1016.911    32.881983    32.936855    40.248673 
     500      500    314.08885   -17347.643    157.48418   -17190.159   -2643.4808    44883.407   0.84841691   -1571.5561   -1479.8913   -4878.9951    32.675589    32.762879    41.925702 
     600      600    312.19017    -17342.02    156.53219   -17185.488   -1466.1756     46129.37   0.82550101   -834.34725   -142.82001   -3421.3595    32.489751    32.562479     43.60273 
     700      700    315.79332   -17341.284     158.3388   -17182.945   -1443.0469    47301.609   0.80504325   -69.668927   -1191.2651   -3068.2066    32.280519    32.361698    45.279758 
     800      800    317.93799   -17340.258    159.41414   -17180.844   -923.14316    48450.005   0.78596155   -119.60101   -1620.2488   -1029.5797     32.06799    32.175384    46.956786 
     900      900    312.18692   -17335.297    156.53055   -17178.767   -1107.4405    49582.782   0.76800533   -775.08644   -1081.2407   -1465.9944    31.857947    32.001827    48.633814 
    1000     1000    308.65416   -17331.604    154.75923   -17176.845   -1331.4785    50674.154   0.75146476    -331.9568   -1513.7859   -2148.6929    31.641224    31.832566    50.310842 
    1100     1100     316.5265   -17333.896    158.70642   -17175.189   -1837.2425    51776.819   0.73546119   -470.95422   -2486.3475    -2554.426    31.451439    31.665972     51.98787 
    1200     1200    314.44625   -17332.139    157.66338   -17174.476   -1507.7855    52794.087   0.72128988   -1023.0418    714.97018   -4215.2849    31.256825    31.473868    53.664898 
    1300     1300     312.0431   -17329.807    156.45844   -17173.349   -1772.5438    53758.132     0.708355   -411.04376   -1587.9523   -3318.6353    31.036872    31.297666    55.341926 
    1400     1400    315.83606    -17331.35    158.36023    -17172.99   -2724.0487    54779.574   0.69514672   -2978.8479   -992.07884   -4201.2193    30.867633    31.124048    57.018954 
    1500     1500    308.46493   -17327.736    154.66435   -17173.072   -969.04401      55840.4   0.68194069    -1548.112   -60.859469   -1298.1605    30.737103    30.951181    58.695982 
    1600     1600    311.49064   -17328.902    156.18144   -17172.721   -1988.2103    56844.423   0.66989582   -1893.4506   -1594.6106   -2476.5698    30.585167    30.784646     60.37301 
    1700     1700    309.91901   -17327.389    155.39342   -17171.995   -1284.1989    57744.468   0.65945436   -1860.6051   -176.91435   -1815.0774     30.41489    30.597229    62.050038 
    1800     1800    313.57522   -17328.676    157.22665   -17171.449   -3937.1738    58685.259   0.64888257   -3604.2434   -3885.3275   -4321.9504    30.263251    30.429129    63.727066 
    1900     1900    307.27073   -17325.572    154.06557   -17171.506   -571.67273    59560.314   0.63934923   -85.650318    193.67044   -1823.0383     30.10737    30.246785    65.404094 
    2000     2000    307.41976   -17325.534     154.1403   -17171.393   -905.41533    60541.294   0.62898955   -92.106414   -1196.5481   -1427.5915    29.974681    30.109033    67.081122 
    2100     2100    307.39252   -17325.929    154.12664   -17171.802   -577.71258     61519.57   0.61898744    13.881959    130.83516   -1877.8548    29.835732    29.988338    68.758151 
    2200     2200    307.43207   -17326.209    154.14647   -17172.062    1568.1788    62522.728   0.60905598    1632.9027    1424.8096    1646.8239    29.697008    29.890667    70.435179 
    2300     2300    311.30669   -17327.878     156.0892   -17171.789   -679.59867    63566.501   0.59905517     311.8208   -349.44385    -2001.173    29.566115    29.814344    72.112207 
    2400     2400    305.38464   -17325.317    153.11989   -17172.197   -842.94581    64537.942   0.59003805   -510.35359   -391.52919   -1626.9546    29.436535    29.712242    73.789235 
    2500     2500    310.04256   -17328.373    155.45537   -17172.918    357.83531    65442.697   0.58188068    1041.5793    193.75992   -161.83328    29.294174    29.602411    75.466263 
    2600     2600    306.36085   -17326.139    153.60936    -17172.53   -218.62038    66344.893   0.57396793    949.06056   -942.19794   -662.72376    29.167819    29.485289    77.143291 
    2700     2700    306.60123   -17324.646    153.72989   -17170.916    102.58417    67290.498   0.56590221    1023.6711    957.94602   -1673.8646    29.064551    29.373245    78.820319 
    2800     2800    306.27905   -17323.713    153.56835   -17170.144    -314.2855    68142.889   0.55882341    508.16428    867.69718    -2318.718    28.947794    29.243106    80.497347 
    2900     2900    306.22405   -17323.537    153.54077   -17169.997   -510.16197    68918.993   0.55253044    898.97107    196.94945   -2626.4064    28.818767    29.102287    82.174375 
    3000     3000    306.85204   -17323.885    153.85565   -17170.029   -785.83758    69604.678   0.54708738    -5.832787   -206.45191    -2145.228    28.665555    28.957945    83.851403 
    3100     3100    305.67785   -17323.409     153.2669   -17170.142   -412.81631     70289.44   0.54175764    -556.8648    259.00405   -940.58819    28.499636    28.836349    85.528431 
    3200     3200    310.38166   -17324.567     155.6254   -17168.941   -573.61709    70960.462   0.53663463    10.138518    345.98348   -2076.9733    28.330885    28.721864    87.205459 
    3300     3300    307.77736   -17323.287     154.3196   -17168.967   -820.67027    71590.823   0.53190954   -698.49222    7.1253146   -1770.6439    28.167467    28.595214    88.882487 
    3400     3400    306.27035   -17323.545    153.56399   -17169.981    627.11613    72244.877     0.527094    1177.1773    920.00279   -215.83169    28.018491    28.472672    90.559515 
    3500     3500     301.9089   -17320.793    151.37715   -17169.416   -646.67761    73015.394   0.52153168   -256.83874   -352.42052   -1330.7736    27.900875    28.372238    92.236543 
    3600     3600     302.5336   -17320.508    151.69038   -17168.817    64.319236    73628.461   0.51718915    863.60221    293.45051     -964.095      27.7689    28.233109    93.913571 
    3700     3700    303.18225   -17320.789    152.01561   -17168.773   -1066.2581     74198.31    0.5132171   -252.82528    -731.4331   -2214.5159     27.63507    28.087835      95.5906 
    3800     3800    304.58162    -17320.92    152.71725   -17168.203   -919.13175    74839.065   0.50882305   -711.41164   -424.80454   -1621.1791    27.521385    27.956947    97.267628 
    3900     3900    302.62717   -17319.948     151.7373   -17168.211    -516.8212    75487.812   0.50445019   -302.59687   -879.12776   -368.73898    27.404246    27.839833    98.944656 
    4000     4000    303.53443   -17320.125    152.19219   -17167.933   -1983.4636    76113.626   0.50030255   -1817.1851   -1001.2613   -3131.9445    27.285022    27.723402    100.62168 
    4100     4100    296.09098   -17316.235    148.46005   -17167.775   -1750.9383    76655.575   0.49676545    -1600.549   -536.76488    -3115.501     27.15518    27.594396    102.29871 
    4200     4200     302.6728   -17319.198    151.76017   -17167.438   -222.88795    77329.472   0.49243633   -41.626007    474.28213     -1101.32    27.046136    27.498424    103.97574 
    4300     4300    301.70894   -17318.667    151.27689    -17167.39   -703.25835     78035.73   0.48797956    243.60674   -502.90657   -1850.4752     26.95417    27.402278    105.65277 
    4400     4400    302.09881   -17317.517    151.47238   -17166.044   -736.37281    78715.951    0.4837627    176.23156   -698.13236   -1687.2176    26.855108    27.309612     107.3298 
    4500     4500    302.40598   -17317.789    151.62639   -17166.162   -751.29614    79340.931   0.47995203    83.390428   -408.94153   -1928.3373    26.764556    27.194655    109.00682 
    4600     4600    306.58886   -17319.574    153.72368   -17165.851    -1232.924    80004.074   0.47597378   -625.66974   -704.06478   -2369.0375    26.667027    27.105238    110.68385 
    4700     4700    306.18869   -17319.979    153.52304   -17166.456     -232.656     80574.49   0.47260419   -93.990835    782.34113   -1386.3183    26.555214    27.004281    112.36088 
    4800     4800    306.44165   -17320.557    153.64988   -17166.907   -55.821923    81211.638   0.46889636    700.16045   -1.0943931   -866.53182    26.461915     26.91211    114.03791 
    4900     4900    308.19243   -17322.103    154.52772   -17167.575   -289.19249    81939.458   0.46473143    -682.4213   -696.46963    511.31348    26.398726    26.823824    115.71494 
    5000     5000    304.13339   -17320.892    152.49251     -17168.4    -426.4945    82700.761   0.46045334   -923.40853   -657.64025    301.56529    26.348428     26.73723    117.39196 
    5100     5100    309.19562   -17323.616    155.03072   -17168.586    -446.0028    83437.402   0.45638815    676.58228   -385.91867    -1628.672     26.29998    26.644445    119.06899 
    5200     5200      307.536   -17323.455    154.19858   -17169.256   -504.25375    84062.487   0.45299446    -67.89959    -328.7465   -1116.1152    26.235712    26.536067    120.74602 
    5300     5300    308.13789   -17323.928    154.50037   -17169.427    -321.6142    84609.434   0.45006614     293.6546   -412.02731    -846.4699    26.167904     26.41111    122.42305 
    5400     5400    306.20563    -17322.69    153.53153   -17169.158   -560.75657    85181.256   0.44704484    97.001183   -826.21051   -953.06036    26.102242    26.296272    124.10008 
    5500     5500    307.73118   -17323.362    154.29645   -17169.066   -136.37515    85708.556   0.44429452    1132.7134   -841.01381   -700.82505      26.0348    26.173894     125.7771 
    5600     5600    308.69658   -17324.621     154.7805   -17169.841    28.077004    86373.147   0.44087593     679.0395    1104.0541   -1698.8626    26.009452    26.055153    127.45413 
    5700     5700    306.25722   -17324.009     153.5574   -17170.452    73.797555    87020.243   0.43759751    9.3617046     798.5655   -586.53454     25.98258    25.936237    129.13116 
    5800     5800    308.49646   -17326.005    154.68016   -17171.325   -372.66862    87714.356   0.43413465   -64.543153    946.90278   -2000.3655    25.954712    25.835659    130.80819 
    5900     5900    301.67385   -17322.807     151.2593   -17171.548   -637.18333    88379.783   0.43086597   -482.62847    424.01025   -1852.9318    25.905506    25.750961    132.48522 
    6000     6000    303.35832   -17323.922    152.10389   -17171.819   -10.193606    89025.515   0.42774075    248.26708    229.67532   -508.52322    25.833125    25.686637    134.16224 
    6100     6100    305.42228   -17324.251    153.13876   -17171.113   -987.17142    89675.216   0.42464176    -1439.178   -154.04195   -1368.2943    25.755563    25.631619    135.83927 
    6200     6200    299.77913   -17322.043    150.30929   -17171.733   -1315.2385     90325.17   0.42158616   -1578.1475   -1116.4078   -1251.1603    25.687402    25.570217     137.5163 
    6300     6300    307.00383   -17325.823    153.93175   -17171.891   -416.88168    90911.083   0.41886908    -524.4228   -592.69692   -133.52531    25.608692    25.504159    139.19333 
    6400     6400    306.03147   -17326.427    153.44421   -17172.983   -315.76117     91540.93   0.41598705   -682.09483   -776.67697     511.4883    25.528282     25.45506    140.87036 
    6500     6500    307.51787   -17327.597    154.18949   -17173.407   -491.36972    92354.604   0.41232207   -256.19013    13.308548   -1231.2276    25.476148    25.431123    142.54739 
    6600     6600    303.82236   -17325.936    152.33656     -17173.6   -207.38152    93194.383   0.40860661    31.458268    281.46862   -935.07147    25.422356    25.417636    144.22441 
    6700     6700    305.13013   -17326.866    152.99228   -17173.873    106.86818    94007.193    0.4050737    1173.9679   -194.59299   -658.77032    25.365721    25.401203    145.90144 
    6800     6800    301.11856   -17324.873    150.98088   -17173.892   -469.26923    94884.382   0.40132886    416.38156   -133.31696   -1690.8723    25.319945    25.392705    147.57847 
    6900     6900    302.58169   -17325.079    151.71449   -17173.364   -460.51157    95821.765   0.39740283   -722.18836   -128.61782   -530.72853    25.281713    25.393779     149.2555 
    7000     7000    303.89678   -17325.045    152.37387   -17172.671    -799.8951     96700.51   0.39379152   -569.84998   -1000.4876   -829.34769    25.240629    25.383164    150.93253 
    7100     7100    298.14339   -17320.824    149.48912   -17171.335   -586.29359    97304.482   0.39134725    278.49548   -257.58755   -1779.7887    25.170854    25.331049    152.60955 
    7200     7200    302.53099   -17323.612    151.68907   -17171.923   -438.69432     97884.85   0.38902692   -398.43388    453.68003   -1371.3291    25.114004    25.262211    154.28658 
    7300     7300    298.17813   -17321.204    149.50654   -17171.698   -378.51117    98436.009   0.38684869     674.2092   -207.66356   -1602.0792    25.053182      25.1923    155.96361 
    7400     7400    305.64125   -17324.532    153.24855   -17171.283   -1142.7011    99038.609   0.38449491    179.93689    -1444.759   -2163.2813    24.995212    25.135037    157.64064 
    7500     7500    305.47922    -17325.42    153.16731   -17172.253   -427.64984     99362.29   0.38324239   -492.63535    141.47561   -931.78978    24.901215    25.045928    159.31767 
    7600     7600    303.17981   -17324.494    152.01439    -17172.48   -1095.2729    99705.139   0.38192456    -978.8744   -648.66966   -1658.2747    24.814447    24.957518    160.99469 
    7700     7700    299.42974   -17323.113     150.1341   -17172.979   -494.75007     99991.39    0.3808312    -877.7333    108.36992   -714.88684    24.720519    24.865257    162.67172 
    7800     7800    306.86834   -17326.702    153.86382   -17172.839   -178.50314    100382.91   0.37934586   -306.85561    1028.8815   -1257.5353    24.641167    24.787464    164.34875 
    7900     7900    303.71493   -17325.306     152.2827   -17173.023   -43.059478    100787.91   0.37782154    235.66429    314.78249   -679.62521    24.567297    24.710158    166.02578 
    8000     8000    300.26131   -17324.514    150.55105   -17173.963   -253.27098    101185.23   0.37633795    511.40875   -106.10482   -1165.1169    24.497194    24.629775    167.70281 
    8100     8100    299.98642   -17323.761    150.41322   -17173.348   -514.49634    101634.66   0.37467375   -287.31316   -31.344902    -1224.831    24.427717    24.563897    169.37983 
    8200     8200     307.7282   -17327.219    154.29495   -17172.924   -635.53656    102128.11   0.37286345    -682.9545   -467.24123   -756.41395    24.360381    24.508726    171.05686 
    8300     8300    304.63856   -17326.216    152.74581    -17173.47    110.83841    102692.67   0.37081363    584.14929   -209.81373   -41.820336    24.287681    24.477995    172.73389 
    8400     8400    300.13619   -17323.952    150.48832   -17173.464   -119.67521    103157.21   0.36914378   -52.555581    626.10191   -932.57197    24.215847    24.424531    174.41092 
    8500     8500     297.9015   -17322.303    149.36784   -17172.935   -756.20039    103573.33   0.36766068   -997.84669   -497.59411   -773.16037    24.143276    24.362515    176.08795 
    8600     8600    307.78389   -17326.788    154.32288   -17172.465    117.57378    103988.22   0.36619379    125.99509    660.61879   -433.89255    24.071857    24.301236    177.76497 
    8700     8700     304.5119   -17326.454     152.6823   -17173.772   -157.25778    104445.17   0.36459168    461.71699   -375.40658   -558.08375    24.000345    24.251957      179.442 
    8800     8800    300.50331    -17324.58    150.67239   -17173.907   -220.68443    104966.13   0.36278216    893.97507   -252.11363   -1303.9147    23.933508    24.214681    181.11903 
    8900     8900    305.86645   -17326.559    153.36147   -17173.198   -265.14529    105515.98   0.36089171   -125.24374    79.934854   -750.12699    23.871498    24.180859    182.79606 
    9000     9000    303.56864   -17325.519    152.20935    -17173.31   -349.91849    106078.69    0.3589773      85.3929    133.15837   -1268.3067    23.820457    24.140432    184.47309 
    9100     9100    308.48973   -17328.104    154.67678   -17173.428   -466.17701    106457.68   0.35769935    -200.3398    230.90888   -1429.1001    23.759385    24.070132    186.15011 
    9200     9200    302.45644   -17325.257    151.65169   -17173.606    330.16364    106685.53   0.35693538    1020.8667    -6.087114   -24.288718    23.680079    23.986343    187.82714 
    9300     9300    302.23218   -17325.393    151.53925   -17173.854   -224.71176     106950.9   0.35604974    544.85783   -306.71143   -912.28168    23.608718    23.905249    189.50417 
    9400     9400    304.41442   -17325.299    152.63342   -17172.665   -296.81032    107255.13    0.3550398   -209.96854     112.1547   -792.61713    23.545436    23.826825     191.1812 
    9500     9500    304.06433   -17324.724    152.45789   -17172.266   -419.78008    107474.73   0.35431438   -294.16072   -563.36342    -401.8161    23.470406    23.743655    192.85823 
    9600     9600    301.35371   -17323.178    151.09878   -17172.079   -62.794987     107560.3   0.35403248    447.01222    -424.9624   -210.43478    23.380243     23.64856    194.53526 
    9700     9700    302.19064   -17323.976    151.51842   -17172.458    38.446849    107725.31    0.3534902    641.61633    300.44179   -826.71757    23.293103    23.570251    196.21228 
    9800     9800    304.77488   -17326.062    152.81416   -17173.248   -373.90394    107965.41   0.35270409   -379.81451    275.32637   -1017.2237    23.212092    23.504337    197.88931 
    9900     9900    298.38898   -17323.701    149.61227   -17174.089   -302.55653    108128.87   0.35217091    -162.5689    273.59059   -1018.6913    23.119495    23.435596    199.56634 
   10000    10000    307.90317   -17328.958    154.38268   -17174.575    -270.9941     108135.1    0.3521506   -107.84637    228.61067   -933.74658    23.025759    23.336255    201.24337 
   10100    10100     306.3959   -17328.685    153.62694   -17175.058    6.2243375    108196.13   0.35195196    -307.4829    708.55735   -382.40144      22.9434     23.23958     202.9204 
   10200    10200    299.90907    -17326.21    150.37444   -17175.835   -747.79122    108261.35   0.35173993   -1124.1496   -138.67785   -980.54618    22.861299    23.145811    204.59742 
   10300    10300    301.73401   -17327.386    151.28947   -17176.096    453.08971    108288.98   0.35165019    447.16173    286.97245    625.13495    22.776605    23.048881    206.27445 
   10400    10400    301.14635   -17327.158    150.99481   -17176.163    196.60094    108505.46    0.3509486    124.00403    458.29359    7.5051909    22.710923    22.974963    207.95148 
   10500    10500    302.26068   -17328.436    151.55354   -17176.883    295.94484    108859.74   0.34980647   -112.30207    641.63078     358.5058     22.65461    22.922414    209.62851 
   10600    10600    299.81686   -17327.395     150.3282   -17177.067   -677.53956    109269.03   0.34849619   -685.52605   -551.64064   -795.45199    22.592259    22.888986    211.30554 
   10700    10700    303.55518   -17328.893     152.2026   -17176.691    219.10827    109584.94   0.34749155    683.16936    377.87812   -403.72267    22.524513     22.84291    212.98256 
   10800    10800    304.48052    -17329.63    152.66656   -17176.964   -36.080849    109907.56   0.34647153    6.4430965    321.75365    -436.4393    22.467808    22.788544    214.65959 
   10900    10900    302.35683   -17328.955    151.60175   -17177.353    74.287045    110094.15   0.34588432    96.001666      404.592   -277.73253     22.39569    22.723214    216.33662 
   11000    11000    300.62308     -17328.7    150.73244   -17177.968      -140.81    110344.23   0.34510043    152.95488    420.65543   -996.04031    22.327253    22.668911    218.01365 
   11100    11100    294.01791   -17325.547    147.42061   -17178.127   -520.36949    110535.31   0.34450385    227.13877   -382.71773   -1405.5295    22.260785    22.602109    219.69068 
   11200    11200    306.10693   -17330.596    153.48205   -17177.114   -761.88821    110579.84   0.34436513     631.4294   -921.08817   -1996.0059    22.178351    22.523322     221.3677 
   11300    11300     303.1083   -17328.966    151.97853   -17176.988   -258.91173    110577.89    0.3443712   -100.26933   -155.98995    -520.4759    22.097935    22.434926    223.04473 
   11400    11400    301.40582   -17328.499    151.12491   -17177.375   -11.381326    110568.13    0.3444016    214.68153    74.514917   -323.34042    22.014848    22.349569    224.72176 
   11500    11500    302.02627   -17329.848      151.436   -17178.412    -202.5293    110678.25   0.34405892   -536.92706    353.22626   -423.88709    21.942993    22.278828    226.39879 
   11600    11600    301.61037   -17329.842    151.22747   -17178.614    187.79753    110950.67   0.34321417   -180.93087     702.5583    41.765149    21.894575    22.218471    228.07582 
   11700    11700    305.42967   -17331.906    153.14247   -17178.763   -1123.1796    111132.27   0.34265333   -1394.6958   -415.92853   -1558.9144    21.837998    22.149629    229.75284 
   11800    11800    303.70148   -17331.209    152.27595   -17178.933   -594.29569    111223.42    0.3423725   -927.70847   -697.52564   -157.65297    21.771475    22.074404    231.42987 
   11900    11900    301.98277   -17330.262    151.41419   -17178.848   -75.187663    111196.22   0.34245627   -485.78615     -578.274    838.49716    21.688676     21.99388     233.1069 
   12000    12000    303.43034    -17331.43       152.14    -17179.29   -504.24929    111149.62   0.34259982   -809.89106    21.218548   -724.07534     21.60415    21.913031    234.78393 
   12100    12100     304.1066   -17331.766    152.47908   -17179.287   -568.94586    110961.45   0.34318083   -308.99486   -405.26567   -992.57703    21.496254    21.829806    236.46096 
   12200    12200    298.54392   -17329.158    149.68995   -17179.468   -188.63076    110891.53   0.34339719    417.56437    -86.64499   -896.81166    21.398394    21.761486    238.13798 
   12300    12300    305.67401   -17332.971    153.26498   -17179.706    112.66112    110883.53   0.34342198    488.31434   -33.045247   -117.28573    21.309472    21.697913    239.81501 
   12400    12400    299.61212   -17330.911    150.22555   -17180.686    159.75699    111094.88   0.34276866    578.28635    627.95926   -726.97464    21.248038    21.650722    241.49204 
   12500    12500    307.51076   -17335.008    154.18593   -17180.822   -67.451083    111368.33   0.34192703   -718.96289    105.26822    411.34142    21.179453    21.624129    243.16907 
   12600    12600    300.34665   -17332.153    150.59384   -17181.559   -631.83851    111649.01   0.34106744   -1204.2128    426.39536   -1117.6981    21.104333    21.606779     244.8461 
   12700    12700    299.23883   -17331.753    150.03838   -17181.714    -966.8026    111799.61   0.34060799   -1284.8426   -447.89672   -1167.6685    21.013243    21.581894    246.52313 
   12800    12800     298.5892   -17331.561    149.71265   -17181.848    407.74845    111938.03    0.3401868        259.1    347.33533    616.81002    20.921318    21.556914    248.20015 
   12900    12900    299.67069   -17332.491    150.25491   -17182.236   -31.684965    112146.36   0.33955487    288.25259   -129.67635   -253.63113    20.843579    21.532094    249.87718 
   13000    13000     300.0729   -17332.668    150.45658   -17182.211   -4.2038918    112530.48   0.33839579    186.01051    19.069229   -217.69142    20.792553    21.514476    251.55421 
   13100    13100    304.36972   -17334.921    152.61101    -17182.31   -41.842458    113036.22   0.33688177   -313.38941    216.79444   -28.932404    20.748355    21.513778    253.23124 
   13200    13200     300.2004   -17333.127    150.52051   -17182.606    126.42291    113521.92   0.33544042    767.76017    745.20749   -1133.6989    20.691827    21.522712    254.90827 
   13300    13300    296.18022   -17330.635    148.50479    -17182.13   -289.33463    114109.29   0.33371378    206.95518    99.641232   -1174.6003    20.645986    21.540392    256.58529 
   13400    13400    302.31342    -17332.36    151.57998    -17180.78   -671.53087    114638.15   0.33217425   -223.68545   -211.29275   -1579.6144    20.594498    21.553456    258.26232 
   13500    13500     302.6713   -17332.861    151.75942   -17181.102   -608.68148    115060.23   0.33095573    -398.4251   -202.40272   -1225.2166     20.53426    21.556297    259.93935 
   13600    13600    299.29127   -17331.877    150.06467   -17181.812    -454.3422    115496.87   0.32970454    -140.1358   -389.81728   -833.07352    20.465421    21.571712    261.61638 
   13700    13700    306.30693   -17335.278    153.58232   -17181.695   -786.11133    115914.34    0.3285171   -733.51832   -250.62012   -1374.1956    20.407889    21.572431    263.29341 
   13800    13800    302.15326   -17333.306    151.49968   -17181.807   -279.79179    116244.95   0.32758277   -393.91027    36.605888   -482.07098    20.345624    21.562824    264.97043 
   13900    13900    303.15854   -17334.989    152.00372   -17182.985   -173.80752    116686.63    0.3263428    -145.2485    43.517138   -419.69118    20.291329    21.566176    266.64746 
   14000    14000    299.48994   -17334.385    150.16429    -17184.22    89.671088    117074.66   0.32526118    36.754163     538.0504    -305.7913    20.235578    21.561897    268.32449 
   14100    14100    298.29731    -17333.98     149.5663   -17184.414   -259.56998    117511.37    0.3240524   -274.74466    20.376602   -524.34188    20.193932    21.552259    270.00152 
   14200    14200    294.88967   -17331.448    147.85771   -17183.591    237.18268    117833.81   0.32316566    1036.7937   -417.48462    92.238923    20.138961    21.536618    271.67855 
   14300    14300    302.58867   -17333.915    151.71799   -17182.197    280.28037    118122.92    0.3223747    611.92471   -76.952607      305.869    20.081552     21.51835    273.35557 
   14400    14400    297.98012   -17330.872    149.40726   -17181.465    64.658123    118373.01    0.3216936    370.67288   -145.61449    -31.08402    20.022126    21.496034     275.0326 
   14500    14500    303.45222   -17333.972    152.15098   -17181.821    245.27651    118604.78   0.32106499   -70.505093    1054.0896   -247.75502    19.964634    21.469234    276.70963 
   14600    14600    305.16539   -17335.391    153.00996   -17182.381   -323.21936    118956.35    0.3201161   -677.59595   -65.219239   -226.84288    19.927393    21.443156    278.38666 
   14700    14700    304.74734     -17335.6    152.80035     -17182.8    -851.3313    119295.71   0.31920545   -795.42334   -1167.8981   -590.67251    19.884066    21.422139    280.06369 
   14800    14800     299.6419   -17333.378    150.24048   -17183.137   -115.98297    119579.95   0.31844671   -214.67749     87.57476    -220.8462    19.838895    21.393965    281.74071 
   14900    14900    302.70632    -17335.78    151.77698   -17184.003    2.5899733    119652.17   0.31825451    230.41678    970.52971   -1193.1766    19.779734    21.343865    283.41774 
   15000    15000    297.13089   -17333.758    148.98146   -17184.776    126.00069    119696.06   0.31813779    817.70444    67.941966   -507.64433    19.723275    21.286858    285.09477 
   15100    15100    300.53589   -17335.522    150.68873   -17184.834   -539.17884    119749.97   0.31799459    109.02558   -656.35725   -1070.2049    19.677937    21.220685     286.7718 
   15200    15200    300.76129   -17335.843    150.80174   -17185.041    14.728275    119691.66   0.31814949    110.01734    543.22967   -609.06219    19.627743    21.140962    288.44883 
   15300    15300      302.529   -17337.659    151.68807   -17185.971   -108.59823    119804.22   0.31785058    82.513669    12.268692   -420.57706    19.580335    21.089465    290.12585 
   15400    15400    298.54528   -17336.616    149.69063   -17186.925    197.09953    120121.11   0.31701207    81.371418    81.832533    428.09463    19.539978    21.067145    291.80288 
   15500    15500    301.49691    -17337.76    151.17058    -17186.59   -344.39095    120686.19   0.31552773    20.487634   -274.89649   -778.76399    19.516837    21.070254    293.47991 
   15600    15600    301.07119   -17337.295    150.95713   -17186.338   -404.85689    121180.17   0.31424151   -333.34739   -88.317165   -792.90612    19.487685    21.067758    295.15694 
   15700    15700    300.51231   -17337.168    150.67691   -17186.491   -841.76119    121512.66   0.31338168   -96.459122   -1082.0936   -1346.7308    19.441985    21.055586    296.83397 
   15800    15800     303.7473   -17339.377    152.29893   -17187.078     -341.613    121918.47   0.31233857   -134.01938   -888.43949   -2.3801279     19.41048    21.041317      298.511 
   15900    15900    298.08691    -17336.75    149.46081    -17187.29    894.83999    122386.86   0.31114321    1199.3684    349.43193    1135.7197    19.393942    21.022063    300.18802 
   16000    16000    302.21644    -17337.89    151.53135   -17186.359   -565.65938    123137.17   0.30924733   -184.90169   -729.23112   -782.84531    19.409991    21.016046    301.86505 
   16100    16100    306.74937   -17340.077    153.80416   -17186.273    131.87225    123653.81   0.30795525    -565.9467    787.75272    173.81072     19.40139    20.996928    303.54208 
   16200    16200    301.73934   -17337.703    151.29214   -17186.411   -25.637559    123907.83   0.30732393    -519.2046    570.05247   -127.76054     19.36658    20.962067    305.21911 
   16300    16300    303.65568    -17338.63    152.25299   -17186.377   -320.87714    124020.81   0.30704398   -314.04707    460.37985   -1108.9642    19.323705    20.912826    306.89614 
   16400    16400     299.3015   -17336.736     150.0698   -17186.666   -274.10478    124077.94    0.3069026    321.41203   -735.04197   -408.68441    19.272226    20.864334    308.57316 
   16500    16500    300.62561   -17337.408    150.73371   -17186.674   -23.051202    124187.89   0.30663086    65.676904    13.640281   -148.47079    19.228324    20.817365    310.25019 
   16600    16600    301.40316   -17338.508    151.12357   -17187.385   -105.06113    124479.12   0.30591349   -155.63455   -286.64871    127.09988    19.180737     20.80549    311.92722 
   16700    16700    300.32359   -17337.939    150.58228   -17187.357   -324.12912    124931.97   0.30480463   -785.08116    238.36203   -425.66822      19.1449    20.808393    313.60425 
   16800    16800    299.22592   -17338.111    150.03191   -17188.079   -215.30284    125383.59   0.30370675   -397.47556    92.013723   -340.44669    19.123153    20.796153    315.28128 
   16900    16900    301.06508   -17339.222    150.95406   -17188.268   -215.16435     125905.2   0.30244852   -128.23906   -228.23516   -289.01883    19.102871    20.794232     316.9583 
   17000    17000    302.04004   -17340.476    151.44291   -17189.033   -110.67718    126440.88   0.30116717    256.20881   -2.9595175   -585.28083    19.084255    20.793057    318.63533 
   17100    17100    300.77237    -17340.69     150.8073   -17189.882   -268.22161    127045.53   0.29973381   -806.29424     40.43288   -38.803459    19.064838    20.804274    320.31236 
   17200    17200    304.01277   -17342.488    152.43203   -17190.056      251.981    127505.74   0.29865197    443.64193    295.17704    17.124024    19.036336    20.801987    321.98939 
   17300    17300    297.61722   -17338.518    149.22531   -17189.292   -5.6208139     128148.8   0.29715332    360.94508   -592.30383     214.4963    19.032874    20.802356    323.66642 
   17400    17400    303.67689   -17341.696    152.26363   -17189.432   -109.69071    128794.28   0.29566408    -56.25419   -282.39222    9.5742828    19.041193     20.79028    325.34344 
   17500    17500      298.127   -17339.563    149.48091   -17190.082    349.09631    129400.35   0.29427927    689.79857    293.55277    63.937599    19.046936    20.774731    327.02047 
   17600    17600    299.76511   -17340.133    150.30226   -17189.831    261.45935     130270.7   0.29231318    310.39113      583.082   -109.09507    19.050948    20.803372     328.6975 
   17700    17700    299.47352   -17339.508    150.15605   -17189.352    -282.1015    131134.25   0.29038823    -584.5846   -419.94336    158.22345    19.041433    20.845386    330.37453 
   17800    17800    301.17922   -17340.339    151.01129   -17189.328   -61.292167    131921.49   0.28865533   -376.54629   -187.79092     380.4607    19.033516    20.873294    332.05156 
   17900    17900    299.83746    -17339.58    150.33853   -17189.241   -407.66961    132614.62   0.28714662    144.63674   -1067.7045   -299.94108    19.019763    20.892621    333.72858 
   18000    18000    298.63189   -17339.052    149.73406   -17189.318    -250.5378    133200.32   0.28588402   -395.77498   -37.265557   -318.57286    19.003625    20.897699    335.40561 
   18100    18100    301.47017    -17341.35    151.15717   -17190.193    68.981971    133567.57   0.28509795     38.99418    697.51087   -529.55913    18.970645    20.887312    337.08264 
   18200    18200    304.16031   -17343.301    152.50601   -17190.795   -75.085208    133926.13   0.28433467   -680.73965    263.74661    191.73742    18.935569    20.878305    338.75967 
   18300    18300    304.07304   -17343.388    152.46225   -17190.926    218.40074     134240.4   0.28366902   -245.95523     202.8478    698.30964    18.903905    20.859089     340.4367 
   18400    18400    303.53939   -17343.447    152.19468   -17191.253   -107.43722    134544.41   0.28302805   -163.88794   -254.11464    95.690911    18.880359    20.829791    342.11372 
   18500    18500    306.11646   -17345.016    153.48682   -17191.529   -206.50207    134909.63   0.28226184   -178.63217    -652.1704    211.29635     18.87387    20.791594    343.79075 
   18600    18600    304.12106   -17345.145    152.48633   -17192.659   -428.97183    135331.21   0.28138255   -221.25715   -793.04756   -272.61079    18.885365    20.742687    345.46778 
   18700    18700    303.41653   -17346.215    152.13308   -17194.082   -207.59659    135641.05    0.2807398    243.36876   -910.55731    44.398777     18.89292    20.681469    347.14481 
   18800    18800    305.98703   -17348.516    153.42193   -17195.094   -201.80312    136153.64   0.27968288   -883.31585   -101.50235    379.40885    18.913564    20.637268    348.82184 
   18900    18900     296.4538   -17344.442    148.64197     -17195.8   -46.424956     136753.3   0.27845647    19.256869   -321.44867    162.91694    18.928482    20.612726    350.49887 
   19000    19000    295.70339   -17343.935    148.26571   -17195.669   -74.335588    137525.24   0.27689347    189.51596   -324.90657   -87.616162    18.947775    20.609364    352.17589 
   19100    19100    303.33173   -17347.213    152.09056   -17195.123    18.464129    138249.04   0.27544381    -34.06083    51.348623    38.104593    18.950386    20.616801    353.85292 
   19200    19200     302.6047   -17346.986    151.72603    -17195.26    593.41193    138782.09   0.27438584    332.36996    204.94723    1242.9186    18.931185    20.619562    355.52995 
   19300    19300    302.90179    -17346.98    151.87499   -17195.105   -259.37676    139323.27   0.27332004   -227.18015    139.49989   -690.45001    18.925896    20.608542    357.20698 
   19400    19400    299.48745   -17345.602    150.16304   -17195.439   -122.93201     139920.5   0.27215341    59.009914    315.41113   -743.21709    18.924908    20.601245    358.88401 
   19500    19500     302.1895   -17348.038    151.51784    -17196.52   -336.95192    140729.49   0.27058892   -184.05534   -586.08591   -240.71452    18.935647    20.612286    360.56103 
   19600    19600    298.33484    -17346.38    149.58512   -17196.794    172.78667    141560.45   0.26900057   -437.24948    57.868209    897.74128    18.953428    20.618643    362.23806 
   19700    19700    300.64805   -17347.876    150.74496   -17197.131    571.71754    142633.89   0.26697612    146.02442    757.22028    811.90791    18.975157    20.655574    363.91509 
   19800    19800    300.91108     -17347.7    150.87685   -17196.823    289.42487    143864.78    0.2646919    383.85747   0.89038792    483.52675    19.006246    20.704336    365.59212 
   19900    19900    302.38235   -17348.484    151.61454   -17196.869    323.99171    144836.71   0.26291567    257.07017     286.0071    428.89787    19.028906    20.724325    367.26915 
   20000    20000    301.63885   -17347.453    151.24175   -17196.211    50.777305    145661.57   0.26142682   -242.30397    123.92303    270.71285    19.046413    20.728544    368.94617 
Loop time of 8520.64 on 1 procs for 20000 steps with 3880 atoms

Performance: 0.203 ns/day, 118.342 hours/ns, 2.347 timesteps/s
0.7% CPU use with 1 MPI tasks x no OpenMP threads

MPI task timing breakdown:
Section |  min time  |  avg time  |  max time  |%varavg| %total
---------------------------------------------------------------
Pair    | 8504.8     | 8504.8     | 8504.8     |   0.0 | 99.81
Neigh   | 2.0997     | 2.0997     | 2.0997     |   0.0 |  0.02
Comm    | 0.82619    | 0.82619    | 0.82619    |   0.0 |  0.01
Output  | 5.7298     | 5.7298     | 5.7298     |   0.0 |  0.07
Modify  | 6.6209     | 6.6209     | 6.6209     |   0.0 |  0.08
Other   |            | 0.5125     |            |       |  0.01

Nlocal:        3880.00 ave        3880 max        3880 min
Histogram: 1 0 0 0 0 0 0 0 0 0
Nghost:        1976.00 ave        1976 max        1976 min
Histogram: 1 0 0 0 0 0 0 0 0 0
Neighs:        5205.00 ave        5205 max        5205 min
Histogram: 1 0 0 0 0 0 0 0 0 0

Total # of neighbors = 5205
Ave neighs/atom = 1.3414948
Neighbor list builds = 987
Dangerous builds = 0
unfix NPT

Total wall time: 4:00:53
