LAMMPS (29 Sep 2021 - Update 3)

units metal
boundary p p p
atom_style atomic
atom_modify map yes
read_data input/mma-radical-addition.data
Reading data file ...
  orthogonal box = (0.0000000 0.0000000 0.0000000) to (20.000000 20.000000 20.000000)
  1 by 1 by 1 MPI processor grid
  reading atoms ...
  31 atoms
  read_data CPU = 0.000 seconds

mass 1 12.011
mass 2 1.008
mass 3 15.999

pair_style pfp_api v4.0.0 CRYSTAL_PLUS_D3
pair_coeff * * species C H O

timestep 0.001

thermo 1000
thermo_style custom step temp etotal pe ke lx vol press density

dump 1 all custom 1000 output/metadynamics.lammpstrj id type element x y z vx vy vz fx fy fz
dump_modify 1 element C H O

velocity all create 300 12345 dist gaussian mom yes
fix f1 all nvt temp 300 300 0.1
fix f2 all plumed plumedfile input/plumed.dat outfile output/plumed.log

run 500000
Neighbor list info ...
  update every 1 steps, delay 10 steps, check yes
  max neighbors/atom: 2000, page size: 100000
  master list distance cutoff = 2.01
  ghost atom cutoff = 2.01
  binsize = 1.005, bins = 20 20 20
  1 neighbor lists, perpetual/occasional/extra = 1 0 0
  (1) pair pfp_api, perpetual
      attributes: half, newton on
      pair build: half/bin/atomonly/newton
      stencil: half/bin/3d
      bin: standard
Per MPI rank memory allocation (min/avg/max) = 4.374 | 4.374 | 4.374 Mbytes
Step Temp TotEng PotEng KinEng Lx Volume Press Density 
       0          300   -138.13044   -139.29378    1.1633413           20         8000    166.69778  0.041771272 
    1000      274.693    -137.3972   -138.46241    1.0652057           20         8000   -614.80841  0.041771272 
    2000    385.38644   -137.06848   -138.56293    1.4944532           20         8000     17.01607  0.041771272 
    3000    310.41853   -137.03128   -138.23502    1.2037423           20         8000    384.95107  0.041771272 
    4000    365.16205   -136.85704   -138.27307     1.416027           20         8000    620.10457  0.041771272 
    5000    230.72014    -137.2795   -138.17419   0.89468756           20         8000   -363.39771  0.041771272 
    6000    342.32249   -136.97335   -138.30081    1.3274597           20         8000    1004.1819  0.041771272 
    7000    245.44077   -137.33439   -138.28616   0.95177127           20         8000   -864.08896  0.041771272 
    8000     355.5603   -136.85727   -138.23606    1.3787933           20         8000   -352.05533  0.041771272 
    9000    335.64457   -137.14479   -138.44635     1.301564           20         8000    393.23803  0.041771272 
   10000    346.94526    -136.4391   -137.78449    1.3453858           20         8000   -440.17558  0.041771272 
   11000    407.09048   -136.41069   -137.98931    1.5786172           20         8000    -307.9137  0.041771272 
   12000     282.9232   -136.95221   -138.04933    1.0971208           20         8000   -157.16198  0.041771272 
   13000     220.1739     -137.181   -138.03479   0.85379132           20         8000    436.06772  0.041771272 
   14000    387.92107    -136.1812   -137.68548     1.504282           20         8000   -16.783034  0.041771272 
   15000    324.84487   -136.39503   -137.65471    1.2596849           20         8000   -630.13617  0.041771272 
   16000    348.91139   -136.47556   -137.82857    1.3530101           20         8000   -523.81959  0.041771272 
   17000     248.1763   -136.94544   -137.90782   0.96237912           20         8000   -208.61584  0.041771272 
   18000    312.14567    -136.6938   -137.90424    1.2104398           20         8000   -457.09091  0.041771272 
   19000    261.56973   -136.75856   -137.77288    1.0143162           20         8000    567.54893  0.041771272 
   20000    255.08579    -136.7162   -137.70538   0.98917278           20         8000   -377.88727  0.041771272 
   21000    327.36958   -136.54331   -137.81279    1.2694752           20         8000    13.730217  0.041771272 
   22000    342.65112   -136.68001   -138.00874     1.328734           20         8000     284.3762  0.041771272 
   23000    403.40112   -136.22827   -137.79258    1.5643106           20         8000    1138.7378  0.041771272 
   24000    298.02895   -136.62423   -137.77992    1.1556979           20         8000    315.85219  0.041771272 
   25000    401.05612   -136.00219   -137.55741    1.5552172           20         8000    197.94051  0.041771272 
   26000    381.18276   -136.36438   -137.84253    1.4781522           20         8000   -753.56777  0.041771272 
   27000    250.16201   -136.91949   -137.88957   0.97007931           20         8000    121.64556  0.041771272 
   28000    336.27158   -136.64797   -137.95196    1.3039954           20         8000    199.68374  0.041771272 
   29000    283.02211   -136.88303   -137.98054    1.0975044           20         8000    159.22912  0.041771272 
   30000    240.55906    -136.8049   -137.73774   0.93284097           20         8000    192.56389  0.041771272 
   31000    319.94875   -136.81529   -138.05599    1.2406987           20         8000   -244.68091  0.041771272 
   32000    401.59256   -136.29187   -137.84917    1.5572974           20         8000    991.44654  0.041771272 
   33000    323.23254   -136.55443   -137.80787    1.2534326           20         8000    42.914226  0.041771272 
   34000    307.00178   -137.12866   -138.31916    1.1904928           20         8000     279.1838  0.041771272 
   35000    247.56216   -137.25609   -138.21609   0.95999763           20         8000   -42.406847  0.041771272 
   36000    351.94892   -136.58279   -137.94758    1.3647891           20         8000    175.55504  0.041771272 
   37000    332.35585   -136.82902   -138.11783     1.288811           20         8000   -196.64882  0.041771272 
   38000    282.64083   -136.70126   -137.79729    1.0960258           20         8000   -169.30696  0.041771272 
   39000    214.30183   -137.17349   -138.00452   0.83102059           20         8000   -290.17429  0.041771272 
   40000    301.90815   -136.63015   -137.80089    1.1707408           20         8000   -14.970836  0.041771272 
   41000    349.19532   -136.83242   -138.18653    1.3541111           20         8000    315.82567  0.041771272 
   42000    264.42491   -136.72005   -137.74544    1.0253881           20         8000   -243.43675  0.041771272 
   43000    281.32896   -136.95511   -138.04604    1.0909386           20         8000    -1.561674  0.041771272 
   44000    290.19893    -136.5742   -137.69954    1.1253347           20         8000    240.18128  0.041771272 
   45000    281.65697   -136.60368   -137.69589    1.0922106           20         8000      538.784  0.041771272 
   46000    216.21941   -136.67574    -137.5142   0.83845656           20         8000   -482.93366  0.041771272 
   47000    310.19515   -136.17957   -137.38245    1.2028761           20         8000    368.20225  0.041771272 
   48000    294.82838   -136.46294   -137.60623    1.1432868           20         8000   -131.25009  0.041771272 
   49000    262.42252   -136.81783   -137.83545    1.0176232           20         8000   -789.36202  0.041771272 
   50000    272.39357   -137.02035   -138.07663     1.056289           20         8000    470.26018  0.041771272 
   51000    235.06945   -136.87752   -137.78907   0.91155334           20         8000    592.39548  0.041771272 
   52000    278.58691   -136.60746   -137.68777    1.0803055           20         8000   -247.55453  0.041771272 
   53000    253.00022   -136.77225   -137.75333   0.98108534           20         8000   -373.38419  0.041771272 
   54000    250.08271   -136.58402   -137.55379    0.9697718           20         8000    302.51903  0.041771272 
   55000    304.83161   -136.40626   -137.58833    1.1820773           20         8000    25.105016  0.041771272 
   56000    269.86284    -136.3787   -137.42518    1.0464753           20         8000    160.75113  0.041771272 
   57000    292.40643   -136.65972   -137.79362    1.1338949           20         8000    110.50224  0.041771272 
   58000    225.33312   -136.73636   -137.61016   0.87379773           20         8000    361.97515  0.041771272 
   59000    323.51223   -136.14214   -137.39665    1.2545171           20         8000    26.005175  0.041771272 
   60000     279.4356   -136.73101    -137.8146    1.0835966           20         8000     300.8304  0.041771272 
   61000    355.31223   -136.32312   -137.70095    1.3778313           20         8000    452.05776  0.041771272 
   62000    282.44308   -136.21827   -137.31353     1.095259           20         8000   -338.53766  0.041771272 
   63000    316.39508   -136.35802   -137.58494    1.2269182           20         8000   -324.12439  0.041771272 
   64000    309.00867    -136.6301   -137.82838    1.1982752           20         8000    647.64874  0.041771272 
   65000    255.33719   -136.91922   -137.90936   0.99014767           20         8000     569.2479  0.041771272 
   66000    262.78583    -136.7028   -137.72183     1.019032           20         8000    325.98651  0.041771272 
   67000    306.78415   -136.11096   -137.30061    1.1896489           20         8000   -1200.3143  0.041771272 
   68000    329.68167   -136.03937   -137.31781     1.278441           20         8000   -204.88973  0.041771272 
   69000    342.36006   -136.30285   -137.63046    1.3276053           20         8000    876.20148  0.041771272 
   70000    288.10437   -136.38947   -137.50668    1.1172124           20         8000    245.42895  0.041771272 
   71000    314.25941   -136.25797    -137.4766    1.2186365           20         8000    -356.7433  0.041771272 
   72000     269.0307   -136.66154   -137.70479    1.0432484           20         8000    -167.1034  0.041771272 
   73000    214.63633   -137.06756   -137.89988    0.8323177           20         8000    1128.5552  0.041771272 
   74000    308.48804   -136.52405   -137.72031    1.1962563           20         8000    13.178269  0.041771272 
   75000     253.5336    -136.9881   -137.97126   0.98315369           20         8000     662.3129  0.041771272 
   76000    275.90879   -136.48008      -137.55    1.0699203           20         8000   -48.513817  0.041771272 
   77000    336.43329   -136.28109   -137.58571    1.3046225           20         8000    616.28303  0.041771272 
   78000     224.4362   -136.90712   -137.77744   0.87031969           20         8000     449.3931  0.041771272 
   79000    305.25263   -136.38012   -137.56383      1.18371           20         8000    375.01542  0.041771272 
   80000    279.13985   -136.59232   -137.67477    1.0824497           20         8000    97.235005  0.041771272 
   81000    336.07393   -136.24237    -137.5456     1.303229           20         8000    85.845119  0.041771272 
   82000    316.51596   -136.31289   -137.54027     1.227387           20         8000    238.31854  0.041771272 
   83000    339.94356   -136.27867    -137.5969    1.3182346           20         8000    281.38431  0.041771272 
   84000    307.42212   -136.65844   -137.85056    1.1921228           20         8000    14.464947  0.041771272 
   85000    311.56574   -136.32122   -137.52941     1.208191           20         8000    -452.4563  0.041771272 
   86000    251.64198   -136.56388   -137.53969   0.97581836           20         8000   -817.20183  0.041771272 
   87000    377.80462   -135.78173   -137.24678    1.4650524           20         8000   -713.41471  0.041771272 
   88000    267.19604   -136.35337   -137.38951     1.036134           20         8000   -43.583488  0.041771272 
   89000    291.31561   -136.40346   -137.53313    1.1296649           20         8000   -680.31175  0.041771272 
   90000    295.49207   -136.02757   -137.17343    1.1458604           20         8000   -409.01516  0.041771272 
   91000    266.06056   -136.53394   -137.56567    1.0317308           20         8000    193.54483  0.041771272 
   92000    285.34101   -136.33879   -137.44528    1.1064966           20         8000   -654.14246  0.041771272 
   93000    286.74486   -136.15885   -137.27079    1.1119404           20         8000     856.5755  0.041771272 
   94000    236.77513   -136.62993    -137.5481   0.91816763           20         8000   -710.45702  0.041771272 
   95000     306.8344   -136.03044   -137.22028    1.1898438           20         8000    136.86853  0.041771272 
   96000    303.83259   -136.54075   -137.71896    1.1782033           20         8000   -374.59418  0.041771272 
   97000    294.41826   -136.28758   -137.42928    1.1416964           20         8000   -607.46296  0.041771272 
   98000    303.24584   -136.19936   -137.37529    1.1759281           20         8000   -67.613577  0.041771272 
   99000    227.22441   -136.66647    -137.5476    0.8811318           20         8000    362.94489  0.041771272 
  100000    282.37736   -136.04926   -137.14427    1.0950042           20         8000    367.82347  0.041771272 
  101000    377.40672   -135.72355   -137.18706    1.4635094           20         8000    729.61816  0.041771272 
  102000    308.08561   -136.16844   -137.36314    1.1946957           20         8000   -161.68499  0.041771272 
  103000    257.02106   -136.56759   -137.56427   0.99667737           20         8000   -318.44376  0.041771272 
  104000    340.28893   -136.24775   -137.56732    1.3195739           20         8000   -198.27966  0.041771272 
  105000    377.60441   -135.82638   -137.29066     1.464276           20         8000   -219.04904  0.041771272 
  106000    246.00696   -136.30627   -137.26024   0.95396686           20         8000     55.36021  0.041771272 
  107000     249.0585    -136.4126    -137.3784   0.96580015           20         8000    -164.0133  0.041771272 
  108000    254.25177   -136.06992   -137.05586   0.98593863           20         8000    116.49203  0.041771272 
  109000    172.91361   -136.42389   -137.09442   0.67052516           20         8000    440.56816  0.041771272 
  110000    328.67919   -135.67745   -136.95201    1.2745536           20         8000   -708.64111  0.041771272 
  111000     345.3688   -136.05439   -137.39367    1.3392726           20         8000   -996.99755  0.041771272 
  112000     270.5543   -136.22557   -137.27473    1.0491566           20         8000     317.0808  0.041771272 
  113000    421.81811   -135.60765   -137.24338    1.6357281           20         8000    13.124893  0.041771272 
  114000    346.87559   -136.05101   -137.39613    1.3451157           20         8000    -407.5994  0.041771272 
  115000    335.34972   -135.87449   -137.17491    1.3004206           20         8000   -1002.9923  0.041771272 
  116000    300.74492    -135.7494   -136.91563      1.16623           20         8000    455.62658  0.041771272 
  117000    277.43274   -135.93903   -137.01486    1.0758299           20         8000    88.381474  0.041771272 
  118000    273.07127   -136.27635   -137.33527    1.0589169           20         8000       196.36  0.041771272 
  119000    327.09865   -136.75738    -138.0258    1.2684246           20         8000    29.520097  0.041771272 
  120000    373.43675   -136.13623   -137.58435    1.4481147           20         8000    422.31019  0.041771272 
  121000    260.74907   -136.99157   -138.00271    1.0111339           20         8000    100.81911  0.041771272 
  122000    281.41568   -136.49492   -137.58619    1.0912749           20         8000    138.96745  0.041771272 
  123000    271.11796   -136.16254   -137.21388    1.0513424           20         8000    231.13038  0.041771272 
  124000    284.74554    -136.1064   -137.21059    1.1041875           20         8000    91.341453  0.041771272 
  125000    333.91225   -136.10264   -137.39749    1.2948464           20         8000   -100.46975  0.041771272 
  126000    227.25003   -136.26243   -137.14366   0.88123114           20         8000    148.19152  0.041771272 
  127000    313.13444   -135.99918   -137.21345    1.2142741           20         8000   -239.34001  0.041771272 
  128000    296.25529   -136.03949   -137.18831    1.1488201           20         8000   -429.40665  0.041771272 
  129000     274.3387   -136.42462   -137.48845    1.0638318           20         8000    269.92388  0.041771272 
  130000    268.05773   -136.45592    -137.4954    1.0394754           20         8000    409.45421  0.041771272 
  131000     256.1307   -136.05881   -137.05203   0.99322475           20         8000   -702.19482  0.041771272 
  132000    246.54388   -136.59166   -137.54771   0.95604893           20         8000    106.39648  0.041771272 
  133000    268.69063   -136.64154   -137.68347    1.0419297           20         8000    360.43972  0.041771272 
  134000    303.87516   -136.76803    -137.9464    1.1783684           20         8000    157.71846  0.041771272 
  135000    301.69394   -136.24965   -137.41956    1.1699101           20         8000      171.017  0.041771272 
  136000    339.28756   -136.40154   -137.71723    1.3156908           20         8000    188.21253  0.041771272 
  137000    314.26713   -136.12239   -137.34106    1.2186665           20         8000    -474.1255  0.041771272 
  138000    258.85191   -136.57516   -137.57894    1.0037771           20         8000    531.31741  0.041771272 
  139000    330.97039   -135.95751   -137.24095    1.2834384           20         8000   -514.99612  0.041771272 
  140000    351.07144   -136.27065   -137.63204    1.3613864           20         8000    135.01776  0.041771272 
  141000     277.2282   -136.44524   -137.52027    1.0750367           20         8000   -611.25436  0.041771272 
  142000     238.8493   -136.43146   -137.35768   0.92621085           20         8000   -383.93265  0.041771272 
  143000     253.6703    -136.4433   -137.42698    0.9836838           20         8000    332.28841  0.041771272 
  144000    316.97809   -136.22031   -137.44949     1.229179           20         8000   -85.438138  0.041771272 
  145000     244.1983   -136.91501   -137.86196   0.94695321           20         8000   -143.78155  0.041771272 
  146000    311.44768    -135.8275   -137.03523    1.2077332           20         8000   -1075.4409  0.041771272 
  147000    330.44279   -135.87649   -137.15788    1.2813925           20         8000    68.133278  0.041771272 
  148000    276.45065   -136.31628   -137.38831    1.0720215           20         8000   -62.572102  0.041771272 
  149000    287.00222   -136.32553   -137.43847    1.1129385           20         8000   -611.57089  0.041771272 
  150000    401.54598   -135.85575   -137.41287    1.5571167           20         8000   -375.67352  0.041771272 
  151000    254.98273   -136.40266   -137.39143   0.98877315           20         8000   -1220.4273  0.041771272 
  152000    324.95232   -135.96104   -137.22114    1.2601015           20         8000    1041.3645  0.041771272 
  153000    379.03217    -135.5858   -137.05562    1.4698126           20         8000    491.49956  0.041771272 
  154000     244.5203   -136.07995   -137.02815   0.94820188           20         8000   -1025.0293  0.041771272 
  155000    332.09382   -135.93717   -137.22497    1.2877948           20         8000    591.06265  0.041771272 
  156000    248.57317   -135.98612   -136.95003   0.96391813           20         8000   -163.67214  0.041771272 
  157000    250.94888   -136.36378   -137.33691   0.97313065           20         8000   -290.15065  0.041771272 
  158000    382.62432    -135.8325   -137.31625    1.4837423           20         8000    338.76641  0.041771272 
  159000    291.72107   -135.72634   -136.85758    1.1312372           20         8000    605.82428  0.041771272 
  160000    250.66701   -136.53378   -137.50582   0.97203763           20         8000    659.90937  0.041771272 
  161000    360.60697   -136.18991   -137.58828    1.3983633           20         8000   -347.83375  0.041771272 
  162000    285.17699   -136.27636   -137.38222    1.1058606           20         8000   -400.29414  0.041771272 
  163000    282.91489   -136.43876   -137.53585    1.0970886           20         8000   -378.49579  0.041771272 
  164000    292.81724   -136.35052   -137.48601     1.135488           20         8000   -1058.6817  0.041771272 
  165000    323.08395   -136.32326   -137.57611    1.2528564           20         8000   -772.33291  0.041771272 
  166000    277.16253   -136.29375   -137.36853    1.0747821           20         8000   -417.96679  0.041771272 
  167000    315.98204    -136.2777   -137.50302    1.2253165           20         8000    831.15112  0.041771272 
  168000    282.27521   -136.11096   -137.20556     1.094608           20         8000    480.07289  0.041771272 
  169000    292.02234   -135.77968   -136.91208    1.1324055           20         8000    504.65281  0.041771272 
  170000    277.09807   -135.96359   -137.03812    1.0745321           20         8000   -204.79931  0.041771272 
  171000    320.95806   -135.63701   -136.88163    1.2446125           20         8000   -877.06494  0.041771272 
  172000    303.33413   -136.06188   -137.23815    1.1762704           20         8000   -620.88251  0.041771272 
  173000    226.83696   -136.59756   -137.47718   0.87962934           20         8000   -177.36544  0.041771272 
  174000    388.46843   -135.79088   -137.29728    1.5064046           20         8000    190.64934  0.041771272 
  175000    253.27098   -136.01363   -136.99577    0.9821353           20         8000   -446.16418  0.041771272 
  176000     329.5138   -135.98738   -137.26517      1.27779           20         8000    83.195222  0.041771272 
  177000    302.40292   -135.87838   -137.05103    1.1726594           20         8000    232.95146  0.041771272 
  178000    372.13443   -135.99181   -137.43487    1.4430645           20         8000   -91.603569  0.041771272 
  179000    289.82771   -136.03451   -137.15841    1.1238952           20         8000    384.83193  0.041771272 
  180000    353.94628   -135.84659   -137.21913    1.3725344           20         8000    12.217937  0.041771272 
  181000    278.53633   -136.24555   -137.32566    1.0801094           20         8000   -1129.5165  0.041771272 
  182000     218.7254   -136.12821   -136.97639   0.84817432           20         8000   -86.187899  0.041771272 
  183000    273.31807   -135.89322   -136.95309     1.059874           20         8000    1527.8992  0.041771272 
  184000    313.96299   -136.06517   -137.28266     1.217487           20         8000   -219.22888  0.041771272 
  185000    305.80954   -136.09551   -137.28138    1.1858696           20         8000   -499.81911  0.041771272 
  186000    302.72308   -136.52676   -137.70066    1.1739009           20         8000    195.89298  0.041771272 
  187000     237.0543   -136.20971   -137.12896   0.91925021           20         8000    530.53418  0.041771272 
  188000    277.57146   -136.49142   -137.56779    1.0763678           20         8000    -720.0503  0.041771272 
  189000    406.30608   -135.80995   -137.38553    1.5755755           20         8000    -708.0409  0.041771272 
  190000    254.91463   -136.48015   -137.46866   0.98850906           20         8000   -217.64968  0.041771272 
  191000    333.19962   -136.31614   -137.60822    1.2920829           20         8000    455.86357  0.041771272 
  192000    245.22405   -136.40193   -137.35287   0.95093088           20         8000   -178.29551  0.041771272 
  193000     301.8379   -135.99694   -137.16741    1.1704683           20         8000   -86.061791  0.041771272 
  194000    356.07916   -136.10565   -137.48646    1.3808053           20         8000    247.12167  0.041771272 
  195000    352.02196   -136.31497   -137.68005    1.3650723           20         8000   -43.617385  0.041771272 
  196000    351.21851   -135.80091   -137.16287    1.3619567           20         8000   -495.37234  0.041771272 
  197000    263.43623   -136.37241   -137.39396    1.0215542           20         8000   -475.84487  0.041771272 
  198000     268.1248   -136.33055   -137.37028    1.0397355           20         8000    654.51545  0.041771272 
  199000    291.49384    -136.0491   -137.17946    1.1303561           20         8000   -93.545997  0.041771272 
  200000    244.95806   -136.28799   -137.23789   0.94989942           20         8000    341.12599  0.041771272 
  201000    302.54527   -136.45627   -137.62948    1.1732114           20         8000    -258.9991  0.041771272 
  202000    264.49116   -136.41113   -137.43678     1.025645           20         8000    24.704371  0.041771272 
  203000    300.40349   -136.07664   -137.24154     1.164906           20         8000    132.13983  0.041771272 
  204000    306.36428   -136.49743   -137.68545    1.1880207           20         8000    128.04678  0.041771272 
  205000    300.23684   -136.09699   -137.26125    1.1642597           20         8000   -543.11094  0.041771272 
  206000    264.51887    -136.3832   -137.40896    1.0257524           20         8000    207.83862  0.041771272 
  207000    331.51968   -136.16875   -137.45432    1.2855684           20         8000   -386.92898  0.041771272 
  208000    328.02278   -136.08546   -137.35747    1.2720082           20         8000    108.42113  0.041771272 
  209000    223.75629   -136.29545   -137.16313   0.86768313           20         8000    -65.72947  0.041771272 
  210000    320.27036   -135.56079   -136.80273    1.2419458           20         8000   -34.585332  0.041771272 
  211000    319.26557   -135.95647   -137.19452    1.2380494           20         8000    -503.6861  0.041771272 
  212000     225.7567   -135.95229   -136.82773   0.87544031           20         8000    694.23349  0.041771272 
  213000    341.86229   -135.81495   -137.14063    1.3256751           20         8000    338.60724  0.041771272 
  214000    279.78922    -135.8785   -136.96347    1.0849678           20         8000   -314.33507  0.041771272 
  215000    262.58712   -136.52877   -137.54703    1.0182615           20         8000   -632.46189  0.041771272 
  216000    300.19506   -136.12122   -137.28532    1.1640977           20         8000   -8.7205088  0.041771272 
  217000    269.93731   -136.14753   -137.19429    1.0467641           20         8000   -181.67154  0.041771272 
  218000    354.70856   -135.73585   -137.11134    1.3754904           20         8000   -116.91854  0.041771272 
  219000    252.53443   -136.46922    -137.4485   0.97927913           20         8000    215.33778  0.041771272 
  220000    359.71773   -135.83829    -137.2332     1.394915           20         8000    284.52217  0.041771272 
  221000    301.56082   -136.36318   -137.53258    1.1693938           20         8000   -29.881285  0.041771272 
  222000    242.40141   -135.96234   -136.90233   0.93998526           20         8000   -499.65008  0.041771272 
  223000     310.4214   -135.80067   -137.00442    1.2037534           20         8000   -628.57939  0.041771272 
  224000    308.02858   -135.98114   -137.17562    1.1944746           20         8000    636.37665  0.041771272 
  225000    243.37621   -136.07697   -137.02073   0.94376533           20         8000   -423.94437  0.041771272 
  226000    312.63725   -135.90439   -137.11674    1.2123461           20         8000    588.24428  0.041771272 
  227000    242.04543   -136.26737   -137.20598   0.93860481           20         8000    -144.9415  0.041771272 
  228000    290.63503   -136.06066   -137.18769    1.1270258           20         8000    310.36899  0.041771272 
  229000    271.08599   -135.98748    -137.0387    1.0512184           20         8000    955.35171  0.041771272 
  230000    353.78453   -135.95187   -137.32378    1.3719072           20         8000    230.25951  0.041771272 
  231000    333.54853   -135.59966   -136.89309    1.2934359           20         8000    150.11369  0.041771272 
  232000    332.08681   -135.60034   -136.88811    1.2877677           20         8000    225.49373  0.041771272 
  233000    251.15746   -136.19779   -137.17173    0.9739395           20         8000   -168.43357  0.041771272 
  234000    307.22577   -135.88223   -137.07359    1.1913614           20         8000    187.54262  0.041771272 
  235000     310.3107   -135.69659   -136.89992    1.2033242           20         8000    799.96673  0.041771272 
  236000    326.19053   -136.07734   -137.34225    1.2649031           20         8000    235.93433  0.041771272 
  237000    286.36895   -136.08889   -137.19937    1.1104827           20         8000    134.15503  0.041771272 
  238000    300.88913   -136.01357   -137.18036    1.1667892           20         8000   -561.63152  0.041771272 
  239000    313.31769   -135.95049   -137.16547    1.2149847           20         8000    409.96692  0.041771272 
  240000    309.27743   -136.40507   -137.60439    1.1993174           20         8000   -536.06452  0.041771272 
  241000    298.18393   -136.06168   -137.21798    1.1562989           20         8000    330.93132  0.041771272 
  242000    289.79161   -136.52253   -137.64629    1.1237552           20         8000   -206.27307  0.041771272 
  243000    294.09829   -136.05746   -137.19792    1.1404556           20         8000    -765.2364  0.041771272 
  244000    295.24625   -135.81899    -136.9639    1.1449072           20         8000    151.55576  0.041771272 
  245000    275.17014   -136.14551   -137.21256     1.067056           20         8000    895.19038  0.041771272 
  246000    246.35211   -135.97644   -136.93175   0.95530529           20         8000    17.989443  0.041771272 
  247000    256.14851   -136.05428   -137.04757   0.99329381           20         8000   -509.06315  0.041771272 
  248000    379.64746   -135.37571   -136.84791    1.4721986           20         8000    41.346443  0.041771272 
  249000    284.31363   -135.84358   -136.94609    1.1025126           20         8000    120.07887  0.041771272 
  250000    304.46287   -135.79559   -136.97624    1.1806474           20         8000    79.542127  0.041771272 
  251000    310.73254   -135.66776   -136.87272      1.20496           20         8000    10.751321  0.041771272 
  252000    383.89204   -135.79506   -137.28372    1.4886582           20         8000   -210.58066  0.041771272 
  253000    429.02595     -135.083   -136.74668    1.6636787           20         8000    488.77491  0.041771272 
  254000    264.69759   -136.06329   -137.08974    1.0264455           20         8000    244.57752  0.041771272 
  255000    251.89631   -135.84895   -136.82575   0.97680459           20         8000   -511.78878  0.041771272 
  256000    272.24661   -135.97659   -137.03231    1.0557191           20         8000    297.65166  0.041771272 
  257000    323.58516   -135.83792   -137.09272       1.2548           20         8000   -154.40168  0.041771272 
  258000    328.36982   -135.49953   -136.77289    1.2733539           20         8000   -448.64626  0.041771272 
  259000    293.58869   -135.79954   -136.93802    1.1384795           20         8000   -298.53335  0.041771272 
  260000    296.99577   -135.56367   -136.71536    1.1516915           20         8000   -343.75826  0.041771272 
  261000    313.77107    -135.4727   -136.68944    1.2167428           20         8000     372.8458  0.041771272 
  262000    271.32264   -136.09631   -137.14845    1.0521361           20         8000    1025.9734  0.041771272 
  263000    298.09581   -136.00209   -137.15804    1.1559572           20         8000    -166.1696  0.041771272 
  264000    275.58891    -135.6474   -136.71608    1.0686799           20         8000   -134.74022  0.041771272 
  265000    295.96647   -135.65486   -136.80256       1.1477           20         8000    312.46283  0.041771272 
  266000    266.95334    -136.0452    -137.0804    1.0351928           20         8000    348.92053  0.041771272 
  267000    312.70526   -136.47753   -137.69014    1.2126098           20         8000   -571.30948  0.041771272 
  268000     348.0963   -135.91362   -137.26347    1.3498493           20         8000   -691.88881  0.041771272 
  269000    358.04559   -135.88949   -137.27792    1.3884307           20         8000   -800.46849  0.041771272 
  270000    305.71355   -136.03298   -137.21847    1.1854973           20         8000   -135.57248  0.041771272 
  271000    279.77033   -135.99112   -137.07601    1.0848946           20         8000    57.272256  0.041771272 
  272000    268.35012   -136.15112   -137.19173    1.0406093           20         8000    493.48981  0.041771272 
  273000    316.51173   -136.21396   -137.44133    1.2273705           20         8000   -375.48993  0.041771272 
  274000    291.37241   -136.25102    -137.3809    1.1298852           20         8000   -245.73964  0.041771272 
  275000    294.44841    -136.1699   -137.31171    1.1418133           20         8000   -151.27845  0.041771272 
  276000    331.68677   -136.09171   -137.37793    1.2862164           20         8000   -415.02435  0.041771272 
  277000    270.52534   -135.99325    -137.0423    1.0490443           20         8000    685.82746  0.041771272 
  278000    264.81597   -136.08154   -137.10845    1.0269045           20         8000    658.55653  0.041771272 
  279000    258.40883   -136.12908   -137.13114    1.0020589           20         8000    113.82885  0.041771272 
  280000    337.49581   -135.70246   -137.01121    1.3087427           20         8000   -847.57722  0.041771272 
  281000    222.75658   -136.21898   -137.08279   0.86380643           20         8000   -523.45822  0.041771272 
  282000    295.56931   -135.64922   -136.79538      1.14616           20         8000    440.54115  0.041771272 
  283000     276.8423   -136.50668   -137.58022    1.0735403           20         8000    35.014287  0.041771272 
  284000    302.34492   -135.96985   -137.14229    1.1724344           20         8000    -259.3843  0.041771272 
  285000    255.74325    -136.1463   -137.13802   0.99172228           20         8000   -268.57952  0.041771272 
  286000     335.7523    -135.8351   -137.13708    1.3019817           20         8000    -440.2399  0.041771272 
  287000    343.58181   -136.10414   -137.43648     1.332343           20         8000   -94.088703  0.041771272 
  288000    280.00259   -136.03717   -137.12297    1.0857953           20         8000    155.63474  0.041771272 
  289000     280.2141   -135.75638     -136.843    1.0866155           20         8000   -935.40657  0.041771272 
  290000    396.49846   -135.38098   -136.91852    1.5375435           20         8000    355.99138  0.041771272 
  291000    376.78503    -135.3118    -136.7729    1.4610986           20         8000   -39.348694  0.041771272 
  292000    313.93251   -135.47251   -136.68987    1.2173688           20         8000    1190.3654  0.041771272 
  293000    305.00006   -135.93734   -137.12007    1.1827306           20         8000      98.6734  0.041771272 
  294000    268.13627   -135.90398   -136.94376      1.03978           20         8000   -158.99242  0.041771272 
  295000    310.09128   -135.30203    -136.5045    1.2024733           20         8000    287.65786  0.041771272 
  296000    321.54967   -136.10666   -137.35357    1.2469067           20         8000    14.711814  0.041771272 
  297000      229.936   -135.97698   -136.86862   0.89164684           20         8000    108.91393  0.041771272 
  298000     223.1297   -136.20843   -137.07368   0.86525334           20         8000   -21.862972  0.041771272 
  299000    299.86801   -135.70047    -136.8633    1.1628295           20         8000   -259.42499  0.041771272 
  300000    316.37647   -135.71017   -136.93701     1.226846           20         8000    -70.08338  0.041771272 
  301000     300.3577   -135.59618   -136.76091    1.1647284           20         8000   -480.97696  0.041771272 
  302000    290.26725   -136.01225   -137.13785    1.1255996           20         8000   -352.75068  0.041771272 
  303000    301.77393   -136.47645   -137.64667    1.1702202           20         8000    -287.5063  0.041771272 
  304000    318.47611   -135.85249   -137.08748    1.2349881           20         8000   -521.43638  0.041771272 
  305000    264.83144   -136.47386   -137.50082    1.0269645           20         8000    161.59106  0.041771272 
  306000    286.77626   -135.99137   -137.10344    1.1120622           20         8000    312.46327  0.041771272 
  307000     330.2564   -136.17544   -137.45611    1.2806697           20         8000    70.793518  0.041771272 
  308000    275.40121   -136.38965    -137.4576     1.067952           20         8000    15.240506  0.041771272 
  309000    309.77824   -136.04439   -137.24565    1.2012594           20         8000    390.45019  0.041771272 
  310000    325.33891   -135.81369   -137.07529    1.2616007           20         8000    646.61485  0.041771272 
  311000    286.33694   -136.24409   -137.35445    1.1103586           20         8000    402.11154  0.041771272 
  312000    252.73941   -136.46041   -137.44049   0.98007398           20         8000   -85.641505  0.041771272 
  313000    339.97733   -135.89374   -137.21211    1.3183656           20         8000   -254.65911  0.041771272 
  314000    245.81642   -136.22372   -137.17695   0.95322799           20         8000   -13.859621  0.041771272 
  315000    290.64003   -135.76609   -136.89313    1.1270452           20         8000    197.36627  0.041771272 
  316000    298.67301   -136.12737   -137.28557    1.1581955           20         8000   -130.94982  0.041771272 
  317000    339.74011   -135.74799   -137.06543    1.3174457           20         8000   -171.68444  0.041771272 
  318000    274.29052    -135.5632   -136.62684     1.063645           20         8000    183.93272  0.041771272 
  319000     267.8531   -136.08717   -137.12585    1.0386819           20         8000     209.9792  0.041771272 
  320000    277.36439   -135.63016   -136.70573    1.0755648           20         8000    147.66485  0.041771272 
  321000    247.08137   -135.79205   -136.75018   0.95813321           20         8000     570.7318  0.041771272 
  322000    290.51006   -136.10922   -137.23576    1.1265412           20         8000   -18.896071  0.041771272 
  323000    418.39768   -135.41822   -137.04069    1.6224643           20         8000     423.5428  0.041771272 
  324000    333.16286   -135.59391   -136.88585    1.2919404           20         8000    41.026069  0.041771272 
  325000     318.2317    -136.2288   -137.46284    1.2340403           20         8000   -582.33916  0.041771272 
  326000    311.72649    -136.0809   -137.28972    1.2088144           20         8000    413.01894  0.041771272 
  327000    325.45534   -135.63629   -136.89834    1.2620521           20         8000   -452.70592  0.041771272 
  328000    297.41445    -135.8285   -136.98182    1.1533151           20         8000   -660.99666  0.041771272 
  329000    298.35375   -135.60287   -136.75983    1.1569575           20         8000   -620.34938  0.041771272 
  330000    351.03186   -135.33425   -136.69548    1.3612329           20         8000    532.93638  0.041771272 
  331000    299.41881   -135.86971    -137.0308    1.1610876           20         8000    1083.4434  0.041771272 
  332000    261.93169   -136.02177   -137.03749    1.0157198           20         8000    199.72467  0.041771272 
  333000    289.24321   -135.82836   -136.94999    1.1216286           20         8000    481.16458  0.041771272 
  334000    290.68716   -135.43631   -136.56354    1.1272279           20         8000   -1268.6453  0.041771272 
  335000    327.00313    -135.4452   -136.71325    1.2680542           20         8000    418.31055  0.041771272 
  336000    208.55185   -136.14753   -136.95625   0.80872328           20         8000    110.92795  0.041771272 
  337000    327.59138   -135.76168   -137.03202    1.2703353           20         8000    259.52869  0.041771272 
  338000    341.74382   -135.16952   -136.49473    1.3252157           20         8000   -438.41486  0.041771272 
  339000    249.33682   -135.78598   -136.75286   0.96687942           20         8000   -276.76497  0.041771272 
  340000    355.88864    -135.4347   -136.81477    1.3800665           20         8000    386.93226  0.041771272 
  341000    309.44988     -135.475   -136.67499    1.1999861           20         8000   -985.19681  0.041771272 
  342000    279.54169   -135.58362   -136.66763     1.084008           20         8000   -677.13188  0.041771272 
  343000    261.58807   -135.93151   -136.94589    1.0143873           20         8000     91.93642  0.041771272 
  344000    265.39373   -135.80552   -136.83467     1.029145           20         8000   -234.15552  0.041771272 
  345000    371.70788    -135.3319   -136.77331    1.4414104           20         8000    316.70713  0.041771272 
  346000    313.37611   -135.70429    -136.9195    1.2152112           20         8000   -193.05287  0.041771272 
  347000    266.14224    -135.6923   -136.72435    1.0320475           20         8000    694.98483  0.041771272 
  348000    391.08369   -135.53433   -137.05088     1.516546           20         8000    799.55578  0.041771272 
  349000    211.27053   -136.02345   -136.84272   0.81926579           20         8000   -313.25085  0.041771272 
  350000    284.33863   -135.55985   -136.66246    1.1026096           20         8000     83.93178  0.041771272 
  351000    293.47582    -135.8634   -137.00144    1.1380418           20         8000   -32.783231  0.041771272 
  352000    277.74007   -136.13322   -137.21024    1.0770217           20         8000   -204.37955  0.041771272 
  353000    261.27456   -136.12294   -137.13611    1.0131716           20         8000   -668.28317  0.041771272 
  354000    287.47372   -136.01274   -137.12751    1.1147669           20         8000    459.83978  0.041771272 
  355000    302.58211   -136.02078   -137.19414    1.1733542           20         8000    713.12051  0.041771272 
  356000    260.27832   -136.05119    -137.0605    1.0093084           20         8000   -117.67848  0.041771272 
  357000    322.96155   -135.89345   -137.14583    1.2523817           20         8000    769.77247  0.041771272 
  358000    282.48737   -136.02312   -137.11855    1.0954308           20         8000    -319.6985  0.041771272 
  359000    289.57546   -136.09732   -137.22024     1.122917           20         8000    173.05857  0.041771272 
  360000    273.44769   -135.69398   -136.75436    1.0603766           20         8000   -268.40174  0.041771272 
  361000    276.49536   -136.09794   -137.17013    1.0721949           20         8000   -671.46553  0.041771272 
  362000    294.47476   -135.48189   -136.62381    1.1419155           20         8000    186.22736  0.041771272 
  363000    251.90189   -136.11136   -137.08818   0.97682624           20         8000    157.52557  0.041771272 
  364000    225.35725   -135.78303   -136.65692   0.87389131           20         8000    -56.01401  0.041771272 
  365000    293.69387   -136.11846   -137.25735    1.1388874           20         8000   -293.10972  0.041771272 
  366000    298.56162   -135.91259   -137.07036    1.1577635           20         8000   -216.02678  0.041771272 
  367000    362.06523   -135.75776   -137.16178    1.4040181           20         8000     537.8277  0.041771272 
  368000    246.81306   -136.01875   -136.97584   0.95709276           20         8000   -201.45856  0.041771272 
  369000    260.63833   -135.97091   -136.98162    1.0107045           20         8000    155.89756  0.041771272 
  370000    348.50468   -135.79565   -137.14708     1.351433           20         8000   -61.927069  0.041771272 
  371000    305.92831   -135.86257    -137.0489    1.1863301           20         8000    639.77123  0.041771272 
  372000    301.43832   -135.96769   -137.13661    1.1689188           20         8000    170.51601  0.041771272 
  373000    263.94728   -135.96272   -136.98626    1.0235359           20         8000    117.19518  0.041771272 
  374000     223.1809   -136.16212   -137.02757   0.86545188           20         8000    78.039892  0.041771272 
  375000    329.00117   -135.54781   -136.82361    1.2758022           20         8000   -39.863651  0.041771272 
  376000     231.7836   -135.63543   -136.53424   0.89881146           20         8000   -272.79732  0.041771272 
  377000    259.49303   -136.07989   -137.08616    1.0062632           20         8000    49.599749  0.041771272 
  378000    308.88084    -135.9538   -137.15158    1.1977795           20         8000    81.123256  0.041771272 
  379000    295.70156   -135.69256   -136.83923    1.1466728           20         8000    244.82645  0.041771272 
  380000    422.77382   -135.27715   -136.91658    1.6394342           20         8000    259.91154  0.041771272 
  381000    274.29938   -135.60744   -136.67112    1.0636793           20         8000    541.05368  0.041771272 
  382000    307.41314   -135.58808   -136.78017     1.192088           20         8000   -14.040683  0.041771272 
  383000    271.80892   -135.61706   -136.67108    1.0540218           20         8000   -498.52612  0.041771272 
  384000     302.6646   -135.53767   -136.71135    1.1736741           20         8000   -384.65957  0.041771272 
  385000    291.60788   -135.61408   -136.74488    1.1307983           20         8000     78.65193  0.041771272 
  386000    330.04779    -135.3915   -136.67136    1.2798608           20         8000    189.04572  0.041771272 
  387000    278.33659   -136.39276    -137.4721    1.0793348           20         8000    131.87891  0.041771272 
  388000    389.14192   -135.66552   -137.17454    1.5090162           20         8000      1087.25  0.041771272 
  389000    314.33502   -136.01695   -137.23588    1.2189297           20         8000    179.77881  0.041771272 
  390000    179.93106   -136.36037   -137.05811   0.69773743           20         8000   -546.77019  0.041771272 
  391000    291.07065   -135.80311   -136.93182     1.128715           20         8000    285.16458  0.041771272 
  392000      282.952   -136.13319   -137.23042    1.0972325           20         8000   -526.88224  0.041771272 
  393000    268.56365   -136.08217   -137.12361    1.0414373           20         8000    811.03548  0.041771272 
  394000    338.69405   -135.93104   -137.24443    1.3133893           20         8000   -845.21415  0.041771272 
  395000    249.63385   -136.04129   -137.00932   0.96803124           20         8000    85.526883  0.041771272 
  396000    269.24608   -136.36984   -137.41392    1.0440836           20         8000   -154.25684  0.041771272 
  397000    245.72029   -136.29133   -137.24419    0.9528552           20         8000    241.84643  0.041771272 
  398000    296.14516   -135.83839   -136.98678     1.148393           20         8000   -211.77571  0.041771272 
  399000    209.39602   -136.48877   -137.30077    0.8119968           20         8000   -215.12919  0.041771272 
  400000    345.04536   -135.73628    -137.0743    1.3380184           20         8000    42.464262  0.041771272 
  401000    240.17691   -136.26151   -137.19287   0.93135907           20         8000    150.71015  0.041771272 
  402000    285.79092   -136.23674   -137.34498    1.1082413           20         8000   -370.25902  0.041771272 
  403000     319.7819   -135.61679   -136.85684    1.2400516           20         8000   -150.62274  0.041771272 
  404000    267.73609   -135.89213   -136.93036    1.0382282           20         8000    208.83072  0.041771272 
  405000    323.26853     -135.759   -137.01258    1.2535721           20         8000    463.00931  0.041771272 
  406000    282.59441   -136.03599   -137.13184    1.0958458           20         8000   -203.16761  0.041771272 
  407000    289.75041   -135.94163   -137.06522    1.1235954           20         8000    490.79805  0.041771272 
  408000    239.52902   -136.22897   -137.15782   0.92884668           20         8000    874.76074  0.041771272 
  409000    283.56948   -135.75851   -136.85814    1.0996269           20         8000   -366.97181  0.041771272 
  410000       256.87   -136.47074   -137.46683   0.99609162           20         8000   -11.363664  0.041771272 
  411000    281.88069   -135.86968   -136.96276    1.0930782           20         8000    418.12595  0.041771272 
  412000    249.56855    -135.9749   -136.94268     0.967778           20         8000   -137.86836  0.041771272 
  413000    273.99108   -135.93529   -136.99778    1.0624838           20         8000    713.01266  0.041771272 
  414000    298.24744    -136.0085   -137.16504    1.1565452           20         8000   -857.76088  0.041771272 
  415000    333.65199   -135.54644   -136.84028    1.2938372           20         8000   -123.86369  0.041771272 
  416000    279.49931   -136.04036    -137.1242    1.0838437           20         8000    215.96241  0.041771272 
  417000    285.81978   -135.81994   -136.92829    1.1083532           20         8000    -576.4784  0.041771272 
  418000     324.4314   -135.79743   -137.05552    1.2580815           20         8000    330.52477  0.041771272 
  419000    224.60236   -136.11867   -136.98963   0.87096402           20         8000    370.68361  0.041771272 
  420000    326.91056   -135.64976   -136.91746    1.2676952           20         8000   -748.70442  0.041771272 
  421000    289.98432   -136.00527   -137.12978    1.1245025           20         8000   -216.84999  0.041771272 
  422000    223.05396   -135.68352   -136.54848   0.86495963           20         8000     380.8767  0.041771272 
  423000    197.29291   -136.34009   -137.10516    0.7650633           20         8000   -45.824064  0.041771272 
  424000    293.56973   -135.47536   -136.61377     1.138406           20         8000    1259.9893  0.041771272 
  425000    299.65498   -135.47433   -136.63633    1.1620034           20         8000    142.26594  0.041771272 
  426000    274.21908   -135.47446   -136.53783    1.0633679           20         8000   -975.58101  0.041771272 
  427000    298.57452   -135.96003   -137.11785    1.1578136           20         8000    299.08173  0.041771272 
  428000    334.49442   -135.77321   -137.07031    1.2971039           20         8000   -427.70561  0.041771272 
  429000    301.25017   -135.83236   -137.00055    1.1681892           20         8000   -609.20773  0.041771272 
  430000     361.3898   -135.22869   -136.63009    1.4013989           20         8000     -183.706  0.041771272 
  431000    292.58016   -135.38433    -136.5189    1.1345686           20         8000   -137.12508  0.041771272 
  432000    251.55376   -136.07286   -137.04834   0.97547625           20         8000   -844.83294  0.041771272 
  433000    273.57646   -135.53722    -136.5981     1.060876           20         8000   -530.45807  0.041771272 
  434000    200.95737   -135.90797   -136.68725   0.77927336           20         8000    93.580868  0.041771272 
  435000    311.44652   -135.58025   -136.78798    1.2077287           20         8000   -65.852093  0.041771272 
  436000    301.06255   -135.59846   -136.76592    1.1674617           20         8000   -218.92753  0.041771272 
  437000    280.60152   -135.78165   -136.86976    1.0881178           20         8000    563.93822  0.041771272 
  438000    273.35508   -135.62001   -136.68002    1.0600175           20         8000    -484.1819  0.041771272 
  439000    309.96795   -135.70473   -136.90673    1.2019951           20         8000   -592.07133  0.041771272 
  440000    338.59731   -135.33221   -136.64522    1.3130141           20         8000    239.52057  0.041771272 
  441000    305.02022    -135.5793    -136.7621    1.1828088           20         8000    321.64483  0.041771272 
  442000    265.47559   -135.62669   -136.65615    1.0294624           20         8000   -524.35949  0.041771272 
  443000    260.47004   -135.83181   -136.84186    1.0100519           20         8000   -187.77067  0.041771272 
  444000    331.14807   -135.39118   -136.67531    1.2841274           20         8000   -12.769233  0.041771272 
  445000    247.90742   -135.82037   -136.78171   0.96133647           20         8000    887.29317  0.041771272 
  446000    255.84623   -135.68676   -136.67888   0.99212161           20         8000     283.5645  0.041771272 
  447000    293.75424   -135.52602   -136.66514    1.1391215           20         8000    449.64222  0.041771272 
  448000    323.85493    -135.4437   -136.69955    1.2558461           20         8000   -129.65213  0.041771272 
  449000    296.44593   -135.87759   -137.02715    1.1495593           20         8000    921.79649  0.041771272 
  450000    335.18118   -135.27127   -136.57104     1.299767           20         8000    519.83006  0.041771272 
  451000    242.40558   -135.53408   -136.47408    0.9400014           20         8000    509.81151  0.041771272 
  452000    277.40993   -135.60111   -136.67685    1.0757414           20         8000    144.55455  0.041771272 
  453000    363.65138   -135.40297   -136.81314    1.4101689           20         8000   -295.44296  0.041771272 
  454000     280.1238   -135.60231   -136.68857    1.0862653           20         8000   -229.52323  0.041771272 
  455000    259.05064    -136.0237   -137.02825    1.0045477           20         8000    249.58981  0.041771272 
  456000    269.13899   -135.63814   -136.68181    1.0436683           20         8000   -448.09228  0.041771272 
  457000    384.36335   -135.42655   -136.91704    1.4904859           20         8000   -256.73154  0.041771272 
  458000    352.13768   -135.21748     -136.583     1.365521           20         8000    176.77434  0.041771272 
  459000    281.18322   -135.59569   -136.68607    1.0903735           20         8000    304.71033  0.041771272 
  460000    266.58673   -135.79653    -136.8303    1.0337712           20         8000   -125.64184  0.041771272 
  461000    306.87752   -135.26351   -136.45352     1.190011           20         8000    1196.9479  0.041771272 
  462000    268.35163   -135.48346   -136.52407    1.0406151           20         8000   -582.27855  0.041771272 
  463000    338.69094   -134.83245   -136.14583    1.3133772           20         8000    571.09547  0.041771272 
  464000    309.15565   -135.33077   -136.52961    1.1988451           20         8000   -364.68778  0.041771272 
  465000    196.00923   -136.24447   -137.00456   0.76008546           20         8000    191.78383  0.041771272 
  466000    267.39144   -135.47861    -136.5155    1.0368917           20         8000   -382.13873  0.041771272 
  467000    328.22281   -135.52839   -136.80118    1.2727838           20         8000    -683.8797  0.041771272 
  468000    296.39702   -135.63581   -136.78518    1.1493696           20         8000    289.11189  0.041771272 
  469000    277.89613   -135.41562   -136.49325    1.0776268           20         8000    19.933379  0.041771272 
  470000    207.73676   -136.15946   -136.96502   0.80556249           20         8000   -83.944227  0.041771272 
  471000    279.50188   -135.74797   -136.83182    1.0838536           20         8000    169.76177  0.041771272 
  472000    328.58995   -135.50196   -136.77617    1.2742075           20         8000    204.83968  0.041771272 
  473000    218.27786   -136.01152   -136.85796   0.84643882           20         8000    47.693948  0.041771272 
  474000    302.51641   -135.89552   -137.06862    1.1730994           20         8000     563.8662  0.041771272 
  475000    285.45479   -135.94488   -137.05181    1.1069378           20         8000    768.10988  0.041771272 
  476000    265.06632    -136.2271   -137.25498    1.0278753           20         8000    497.70832  0.041771272 
  477000    324.98092   -135.68903   -136.94924    1.2602124           20         8000    493.49541  0.041771272 
  478000    291.01307   -136.08923   -137.21772    1.1284918           20         8000   -149.93751  0.041771272 
  479000     258.3333     -135.893   -136.89477     1.001766           20         8000    146.26305  0.041771272 
  480000    325.87655   -135.63936   -136.90304    1.2636855           20         8000   -453.48045  0.041771272 
  481000    298.40093    -135.5554   -136.71254    1.1571404           20         8000     625.1937  0.041771272 
  482000     265.0036   -135.84338   -136.87101    1.0276321           20         8000   -492.72086  0.041771272 
  483000    237.96992   -136.11155   -137.03435   0.92280079           20         8000    327.93085  0.041771272 
  484000    298.95706   -135.70632   -136.86562     1.159297           20         8000    1215.1551  0.041771272 
  485000    291.25732   -135.92274   -137.05218    1.1294389           20         8000    89.386272  0.041771272 
  486000    363.97449   -135.45294   -136.86436    1.4114219           20         8000    365.16418  0.041771272 
  487000    274.69472   -135.29367   -136.35888    1.0652124           20         8000   -519.38512  0.041771272 
  488000    301.14922   -135.69109   -136.85888    1.1677978           20         8000   -42.611053  0.041771272 
  489000    307.22789   -135.81148   -137.00285    1.1913697           20         8000   -277.67575  0.041771272 
  490000    420.82422   -135.20024   -136.83211     1.631874           20         8000   -56.865223  0.041771272 
  491000    320.70136   -135.49966   -136.74328    1.2436171           20         8000   -90.850688  0.041771272 
  492000    266.41352   -135.68735   -136.72045    1.0330995           20         8000    66.028257  0.041771272 
  493000    266.81142   -136.01315   -137.04779    1.0346425           20         8000    -463.6186  0.041771272 
  494000    314.84955   -135.32256   -136.54348     1.220925           20         8000   -12.543913  0.041771272 
  495000    297.50087   -135.54139   -136.69504    1.1536502           20         8000   -11.509836  0.041771272 
  496000    400.03915   -135.92108   -137.47236    1.5512736           20         8000    252.01169  0.041771272 
  497000    331.38054    -135.4015   -136.68652    1.2850289           20         8000    471.31944  0.041771272 
  498000    333.21525   -135.21178   -136.50392    1.2921435           20         8000   -1324.7332  0.041771272 
  499000    295.31648    -135.5248   -136.66998    1.1451795           20         8000    -420.7778  0.041771272 
  500000    289.22003   -135.61553   -136.73707    1.1215387           20         8000   -418.17492  0.041771272 
Loop time of 32542.7 on 1 procs for 500000 steps with 31 atoms

Performance: 1.327 ns/day, 18.079 hours/ns, 15.364 timesteps/s
1.9% CPU use with 1 MPI tasks x no OpenMP threads

MPI task timing breakdown:
Section |  min time  |  avg time  |  max time  |%varavg| %total
---------------------------------------------------------------
Pair    | 32497      | 32497      | 32497      |   0.0 | 99.86
Neigh   | 0.29543    | 0.29543    | 0.29543    |   0.0 |  0.00
Comm    | 1.1922     | 1.1922     | 1.1922     |   0.0 |  0.00
Output  | 0.12109    | 0.12109    | 0.12109    |   0.0 |  0.00
Modify  | 42.135     | 42.135     | 42.135     |   0.0 |  0.13
Other   |            | 1.597      |            |       |  0.00

Nlocal:        31.0000 ave          31 max          31 min
Histogram: 1 0 0 0 0 0 0 0 0 0
Nghost:         0.00000 ave           0 max           0 min
Histogram: 1 0 0 0 0 0 0 0 0 0
Neighs:        46.0000 ave          46 max          46 min
Histogram: 1 0 0 0 0 0 0 0 0 0

Total # of neighbors = 46
Ave neighs/atom = 1.4838710
Neighbor list builds = 9362
Dangerous builds = 0
unfix f1
unfix f2
Total wall time: 9:02:23
