ITEM: TIMESTEP
0
ITEM: NUMBER OF ATOMS
31
ITEM: BOX BOUNDS pp pp pp
0.0000000000000000e+00 2.0000000000000000e+01
0.0000000000000000e+00 2.0000000000000000e+01
0.0000000000000000e+00 2.0000000000000000e+01
ITEM: ATOMS id type element x y z vx vy vz fx fy fz
15 2 H 10.722 9.01299 6.92678 -8.24116 36.9786 -16.3933 0.00309925 -0.00153745 0.00235059
16 2 H 9.41777 7.8447 7.37396 5.33541 -4.12054 -20.3735 0.00191863 0.00347238 0.00234109
14 2 H 10.872 8.0088 8.40684 -13.4694 -3.22523 6.41948 0.00501917 0.00655124 0.000746021
7 1 C 10.1731 8.54597 7.75087 2.01888 2.7567 -4.99232 -0.00427475 -0.00570469 -0.00220891
4 1 C 8.6089 9.25264 9.39028 0.736114 -2.01827 0.87427 0.00607212 0.00322197 0.00121446
6 3 O 9.54762 9.62896 8.46372 -2.85526 -6.40385 -0.905284 -0.00133984 -0.00430569 -0.00743409
29 2 H 12.8819 11.4689 8.63141 -12.5401 -7.84144 -15.6783 -0.00163763 0.00177485 0.000748659
12 2 H 7.62408 11.9786 8.77341 -12.2204 1.10554 -19.1527 0.00121519 0.00514222 0.00235631
11 2 H 9.32969 11.9502 9.27351 26.1183 -28.632 18.8379 -0.00289358 0.0010399 -0.000880309
5 3 O 8.29125 8.07709 9.57067 2.71668 0.509301 2.97343 0.00203756 0.00200943 -0.00312142
21 3 O 12.7952 9.34536 10.1843 -0.976589 2.42467 -4.06446 0.0034977 0.000696041 0.00187431
8 2 H 5.95793 10.3156 10.2654 -1.54378 11.8549 27.5706 -0.0032711 -0.00202172 -0.00174627
2 1 C 8.09529 10.4027 10.1518 0.463674 3.71259 -4.42083 -0.0694822 0.0014938 -0.0676893
22 3 O 11.7498 11.3629 10.3911 -4.10123 0.495925 4.95714 0.00450579 0.00179894 0.00160031
3 1 C 8.3036 11.79 9.62323 2.18556 -0.788327 -4.7797 -0.00020455 -0.00498972 0.00723299
13 2 H 8.06503 12.5346 10.3966 4.96033 -11.4626 7.42239 0.0022191 0.00747976 0.00302475
23 1 C 12.8339 11.9246 9.63003 -0.959379 -7.17436 3.55669 -0.000589637 -0.000229926 -0.00171381
30 2 H 13.793 11.7556 10.1381 -26.6271 14.4271 -12.5904 -0.00435418 -0.0043995 4.58279e-05
31 2 H 12.6183 12.9954 9.55693 2.44928 -8.37471 10.4853 -0.00608526 -0.00696617 -0.00234472
25 2 H 10.3377 7.42037 10.8198 2.59296 -6.01421 -12.7924 0.00430308 -0.001148 -0.0027991
10 2 H 6.78678 9.13362 11.298 7.80774 -0.889531 41.0302 -0.00113955 -0.00128808 0.00190922
18 1 C 10.7229 9.45613 11.3765 3.9499 2.3879 6.58587 0.00278642 -0.00233491 0.00043569
1 1 C 6.83403 10.1623 10.9207 5.56195 6.69914 -6.31173 -0.00155309 0.000616893 0.00269819
20 1 C 11.8472 10.0107 10.6062 -2.61581 8.58528 -0.688081 0.00156999 0.00180424 -0.00231263
24 2 H 10.2051 7.72691 12.5522 -19.8302 -3.02974 -19.7532 -0.00239054 0.00142541 -0.00095642
17 1 C 10.7827 7.98834 11.6553 -0.303203 -4.07883 -4.87329 -0.0054211 0.000270179 0.00534998
26 2 H 11.8217 7.65576 11.7645 39.083 -9.92367 2.76545 -0.00235727 -0.00121642 0.00363105
28 2 H 8.90709 9.82572 12.4176 17.5178 3.1329 7.6351 0.0035073 7.84572e-05 -0.00145519
19 1 C 9.62006 10.2339 11.7 -4.3243 -4.06649 7.24686 0.0628887 -0.00857601 0.0552196
9 2 H 6.73521 10.8733 11.7538 -8.27221 -9.6423 29.7814 0.00270601 0.00181495 0.00119758
27 2 H 9.71929 11.3174 11.6729 -0.319756 1.18305 10.7606 -0.000351745 0.00402762 0.000685518
ITEM: TIMESTEP
1000
ITEM: NUMBER OF ATOMS
31
ITEM: BOX BOUNDS pp pp pp
0.0000000000000000e+00 2.0000000000000000e+01
0.0000000000000000e+00 2.0000000000000000e+01
0.0000000000000000e+00 2.0000000000000000e+01
ITEM: ATOMS id type element x y z vx vy vz fx fy fz
15 2 H 6.037 8.32991 6.89488 2.31856 7.97014 7.15378 -0.129264 -0.253098 0.569577
16 2 H 7.07224 7.05367 7.88545 -3.61363 -7.65302 -6.08688 -0.521675 0.34209 -0.598122
14 2 H 7.71659 8.03104 6.49178 8.73975 -24.2408 -28.0616 -0.0966688 -0.283131 0.282453
7 1 C 6.99463 8.01991 7.3361 -3.07534 0.470231 -2.59215 0.911405 0.333977 -0.17608
4 1 C 8.47134 8.63428 9.08028 8.03563 5.20727 4.8876 -1.47265 1.2541 1.39875
6 3 O 7.42721 9.0657 8.27271 2.59973 -1.80303 -0.366378 0.595868 -1.46907 -0.6042
29 2 H 13.5259 10.5189 13.67 -14.0114 -33.4698 10.5896 0.101921 -1.08747 0.508425
12 2 H 7.45215 11.5617 9.46383 -24.3323 4.35422 -12.2521 -0.312756 -0.35099 -0.625757
11 2 H 8.97335 11.3707 8.48911 -22.2588 13.161 -0.757013 -0.280839 -0.357531 0.083318
5 3 O 8.94708 7.50602 9.13362 -0.00493009 2.14535 -3.77213 -0.172698 0.946694 -0.499553
21 3 O 13.5107 10.8477 10.3909 -9.44439 2.4842 -0.982092 1.07978 0.00142238 0.872472
8 2 H 6.49242 9.6032 10.6527 -35.0225 -29.1373 0.175874 0.294698 -0.347088 0.549568
2 1 C 8.6108 9.81059 10.1332 -1.95861 -4.45914 4.19118 1.56989 -0.253308 -0.531314
22 3 O 12.1144 11.1372 12.2743 2.24032 0.864715 -0.989237 0.370698 -0.774218 -0.820696
3 1 C 8.4909 11.2157 9.46376 -6.81032 -1.61071 1.27703 -0.401275 0.221543 0.913716
13 2 H 8.90641 11.9772 10.1341 49.0509 3.5768 14.3698 0.571227 -0.0996815 0.250181
23 1 C 13.2423 11.3949 13.1292 2.27434 -1.15755 -1.72136 0.726781 -0.384368 -1.74767
30 2 H 13.0367 12.1538 13.8318 8.6604 -11.3688 -9.35756 -0.667275 1.2082 0.712329
31 2 H 14.1009 11.6659 12.4971 3.60193 -9.16718 -1.38126 0.0188605 0.190251 0.0855365
25 2 H 12.5717 10.3889 8.46431 -16.2905 -16.6694 -13.4587 0.692955 0.11933 -0.238916
10 2 H 7.735 8.72187 11.812 -13.8858 -22.6041 10.3289 -0.713589 0.350043 -0.271348
18 1 C 11.2438 10.3009 10.1802 4.34669 -1.26755 -3.38499 0.779022 -0.29795 -1.3909
1 1 C 7.45686 9.61201 11.2018 -0.301094 6.30334 1.38929 1.51053 0.080838 -1.03754
20 1 C 12.4361 10.7038 10.9506 2.4395 -0.648586 3.63731 -1.82119 1.10423 0.220722
24 2 H 10.9564 11.1406 8.19849 -10.3249 5.81596 -21.0976 0.230881 -0.17303 -0.154569
17 1 C 11.5216 10.3032 8.64646 4.0438 3.14842 5.35999 -2.22989 -1.58515 1.06942
26 2 H 11.1101 9.31237 8.20119 7.54187 -0.272227 16.1741 0.54569 1.39174 0.453493
28 2 H 10.279 8.58558 10.8566 18.4326 4.20504 -18.976 -0.0861113 -0.449461 0.0578171
19 1 C 10.0502 9.65454 10.8073 1.79972 0.0178825 -2.70401 -0.277082 0.575546 -0.118252
9 2 H 7.5414 10.521 11.7982 -16.0337 -14.8076 11.3658 -0.301821 0.0669928 0.46408
27 2 H 10.0858 10.0225 11.8358 1.96443 0.182563 15.0396 -0.515419 -0.021448 0.323068
ITEM: TIMESTEP
2000
ITEM: NUMBER OF ATOMS
31
ITEM: BOX BOUNDS pp pp pp
0.0000000000000000e+00 2.0000000000000000e+01
0.0000000000000000e+00 2.0000000000000000e+01
0.0000000000000000e+00 2.0000000000000000e+01
ITEM: ATOMS id type element x y z vx vy vz fx fy fz
7 1 C 7.32349 10.7505 8.03075 4.32499 5.51909 -2.78666 0.597478 0.802517 -0.325786
14 2 H 6.33544 10.278 7.81925 -20.901 29.8643 15.7445 0.67174 -0.0631288 -0.0332758
15 2 H 8.04638 10.7359 7.15331 18.5749 27.5316 7.48313 -1.02732 -0.036354 0.65202
16 2 H 7.14145 11.7967 8.38318 25.2521 -18.9686 33.4887 0.0520158 -0.505091 -0.552186
6 3 O 7.97896 10.1836 9.177 -0.868319 -8.48775 -0.639226 0.0573649 -0.939242 0.646167
26 2 H 12.1373 10.714 8.06227 0.84162 10.7548 15.5076 0.876581 0.7369 -0.5132
24 2 H 10.6444 9.8682 7.66901 16.984 22.5489 10.0238 0.0479305 -0.126201 0.103629
25 2 H 10.5167 11.4389 8.40965 -41.6481 18.219 1.6338 -0.233148 1.47843 -0.446219
5 3 O 8.63899 8.34704 7.99289 -0.0828805 0.692128 0.341611 -0.101013 0.279002 1.09215
4 1 C 8.56197 8.93866 9.07572 -3.04972 2.61798 -6.85495 -0.627175 0.402157 -1.07466
17 1 C 11.1255 10.5712 8.36344 -2.23325 8.7411 -0.29176 -0.980389 -2.28785 0.465499
12 2 H 7.59376 9.37832 11.6699 -18.5487 11.7117 14.3125 0.509901 -0.587634 0.154529
11 2 H 9.00706 10.2901 11.5314 26.2719 6.0043 15.8223 0.584981 0.0680213 0.18314
2 1 C 9.15229 8.44289 10.4098 -5.04692 6.79215 -0.0242091 -1.08956 0.723564 -0.067434
18 1 C 11.1483 10.0638 9.77304 -5.26638 -12.2487 4.66888 -0.178866 -0.730581 1.34321
3 1 C 8.70732 9.24429 11.6258 -6.2984 -5.09803 -0.050878 -1.64917 0.375598 0.249314
21 3 O 12.3144 12.061 10.1847 -2.21401 3.17437 -0.518265 -0.302965 0.334333 -0.0108586
8 2 H 7.80219 6.89441 10.9085 17.3566 11.2904 9.51688 -1.94705 -0.336265 0.560925
1 1 C 8.78552 6.92397 10.5635 3.79803 -8.88468 -4.37189 2.26061 1.76262 -0.77464
28 2 H 10.863 7.98473 9.46 -0.208296 -7.42 3.4646 0.676086 -0.133966 -0.245259
19 1 C 10.6332 8.69185 10.2677 2.24987 0.306929 7.89277 1.7387 -0.129535 -1.21158
20 1 C 11.8091 11.033 10.649 5.26712 -5.15077 -0.678078 1.01035 -0.0467212 0.194093
13 2 H 9.07398 8.791 12.5751 22.4518 19.3326 38.9332 -0.0966666 0.28878 -0.471542
10 2 H 8.88822 6.44076 9.56154 15.3833 -12.1694 -4.35483 0.282821 -0.158946 0.959631
9 2 H 9.46069 6.68665 11.3984 9.7269 6.90377 -3.39677 -0.0210148 -1.09179 -0.366747
27 2 H 11.2125 8.34068 11.1529 24.3596 17.7326 -18.9399 -0.425269 0.372108 -0.177114
22 3 O 12.0034 10.7006 11.9812 0.5369 1.87204 -2.44172 -0.720635 -0.269936 -0.0280029
31 2 H 12.6219 12.6632 12.2125 2.6914 -15.0789 17.1298 0.0698498 0.0911208 0.0874276
23 1 C 12.4504 11.7806 12.8396 4.46312 1.57066 -3.19301 0.630263 -0.166631 -0.593691
30 2 H 11.6881 11.9861 13.5811 -2.9219 -7.10564 -32.6371 -0.36968 -0.0650269 0.333146
29 2 H 13.3988 11.489 13.3301 -32.602 -7.9973 -4.22989 -0.296753 -0.04025 -0.132682
ITEM: TIMESTEP
3000
ITEM: NUMBER OF ATOMS
31
ITEM: BOX BOUNDS pp pp pp
0.0000000000000000e+00 2.0000000000000000e+01
0.0000000000000000e+00 2.0000000000000000e+01
0.0000000000000000e+00 2.0000000000000000e+01
ITEM: ATOMS id type element x y z vx vy vz fx fy fz
15 2 H 5.84738 10.2167 9.15969 14.2743 -8.28878 1.03481 0.402498 -1.01192 -0.443243
5 3 O 8.34069 10.1138 7.92801 -0.309531 -1.83766 6.10654 1.08664 0.614984 -0.341199
14 2 H 5.97974 8.71893 8.0244 8.62279 -17.8332 7.7748 -0.51952 0.438899 0.197825
24 2 H 9.09075 11.8968 9.91192 10.781 14.293 -4.99993 -0.988318 0.370845 0.418059
7 1 C 6.0672 9.10566 9.05725 -7.64101 7.2682 -0.909661 1.18591 1.00676 -0.584275
25 2 H 10.6228 12.8563 10.0335 -22.5986 -26.8234 11.5596 -0.12424 1.84361 1.1335
17 1 C 10.1011 12.0584 9.59505 0.857014 -0.726004 -3.85044 0.302097 -0.0194671 -1.35311
26 2 H 10.1028 12.2818 8.52868 14.6209 -15.4436 -16.6382 -0.24641 -0.345888 -0.468931
4 1 C 8.53972 9.37719 8.87149 1.24832 1.20903 11.0406 -2.17445 -0.887432 0.120794
6 3 O 7.42504 8.7751 9.46425 0.84151 -1.97613 -2.6818 0.169052 0.136534 0.906038
16 2 H 5.43026 8.59053 9.75743 15.6044 1.28715 16.1149 -0.303873 -0.491902 0.252376
10 2 H 10.3758 7.69397 7.62034 3.84674 -4.69505 3.49245 0.0131961 -0.0169577 -0.279941
28 2 H 11.1796 9.65771 8.16583 -16.3278 3.40038 -17.9141 0.135846 0.582454 0.1205
2 1 C 9.7989 8.71951 9.48259 9.32348 -4.91578 -0.669737 -0.221274 1.89905 -0.96134
19 1 C 11.0504 9.65343 9.26378 -4.09866 1.40403 -2.37535 0.563446 -1.7836 -0.160732
18 1 C 10.9378 10.9444 9.94087 -4.82165 2.85944 6.08064 2.01358 -1.44315 1.08119
21 3 O 11.4581 11.9426 12.0519 0.563578 -0.336789 -4.77367 -0.434082 0.790368 0.240492
8 2 H 8.89842 7.03985 8.46596 18.0177 35.0511 -7.25889 0.143115 -0.471071 -0.179958
1 1 C 9.91099 7.43606 8.56668 1.43383 8.20627 -12.3258 0.669236 0.196395 2.51566
9 2 H 10.576 6.7708 9.18559 20.8256 12.6636 9.86436 -0.496819 -0.0320792 -0.865737
27 2 H 11.9554 9.11655 9.72618 20.4146 29.9222 -0.218225 -1.11181 0.407068 -0.755181
20 1 C 11.6948 11.0773 11.2148 -1.90632 -4.6003 -0.366613 -0.407215 0.304861 -0.438781
12 2 H 8.75848 7.80969 11.0806 2.53139 2.8977 -37.7349 -0.0924694 -0.0204522 0.376887
3 1 C 9.56478 8.54218 10.9781 6.18957 -2.56788 2.84538 -0.127588 -1.34297 0.219406
13 2 H 10.4525 8.11188 11.4419 3.82246 -0.642962 19.3182 0.365478 -0.167058 0.0704334
11 2 H 9.30164 9.42052 11.5936 -24.7577 2.86373 28.0697 0.00167424 0.112677 -0.672521
22 3 O 12.6903 10.1747 11.4772 -4.19862 -6.00614 4.09129 -1.0423 -0.458101 -1.60163
31 2 H 13.8995 11.1443 12.7705 -11.7563 5.6107 -3.38031 0.404946 0.122643 0.391785
29 2 H 13.7202 9.27784 12.9089 5.47419 4.67932 -5.65598 -0.370218 1.51311 0.256477
23 1 C 13.2127 10.3003 12.7638 -2.14832 1.60024 -3.35713 -0.0502964 -1.47133 1.8594
30 2 H 12.3792 10.4943 13.5485 4.48967 6.23994 -0.625494 1.25417 -0.376894 -1.05425
ITEM: TIMESTEP
4000
ITEM: NUMBER OF ATOMS
31
ITEM: BOX BOUNDS pp pp pp
0.0000000000000000e+00 2.0000000000000000e+01
0.0000000000000000e+00 2.0000000000000000e+01
0.0000000000000000e+00 2.0000000000000000e+01
ITEM: ATOMS id type element x y z vx vy vz fx fy fz
10 2 H 9.59458 9.70103 6.48754 -1.70836 15.9238 -32.5045 0.00739393 0.132282 0.215836
14 2 H 6.00636 7.9688 8.42301 18.1724 20.6728 -23.6802 -0.707679 0.0809717 -0.125854
5 3 O 7.67141 10.4486 8.45191 0.653902 -0.321263 4.00257 -0.618887 0.902784 -0.0784647
28 2 H 10.39 11.5587 8.63818 -11.2951 -6.54115 20.3082 -0.149874 0.377523 0.0725789
8 2 H 10.0587 8.04694 7.11921 -4.46191 25.215 5.29938 0.144543 1.02656 -0.358673
9 2 H 11.2342 9.40934 7.16214 11.7369 -13.9744 22.0659 0.765578 0.0512171 -0.482704
1 1 C 10.1909 9.16522 7.23624 -10.4865 0.16789 -2.6208 -0.791106 -1.12238 0.87592
7 1 C 6.32442 8.34291 9.3895 4.72474 0.110994 -5.51278 1.30503 1.83817 -0.212377
4 1 C 8.32699 9.50706 8.85631 -1.8268 -7.063 -2.05178 0.860567 1.26718 -1.28583
2 1 C 9.83757 9.43653 8.74982 5.4615 -4.1204 6.76716 0.262633 0.0944837 -0.407047
27 2 H 11.7196 10.4634 9.14084 -15.2623 37.7491 22.9149 0.0667156 -0.0997317 -0.850791
15 2 H 5.98882 9.39363 9.65981 28.1483 2.1014 -2.59749 0.154681 -1.05998 -0.728223
19 1 C 10.6538 10.6956 9.24852 -5.63277 3.92753 1.64574 0.517646 -0.826165 1.06859
26 2 H 8.49898 10.7295 10.7994 13.3727 19.1289 2.14871 0.0565813 0.590797 0.42002
16 2 H 6.09524 7.70419 10.2115 -4.28333 2.24872 -18.2795 -0.0528903 -0.89338 0.561211
6 3 O 7.81762 8.36631 9.25997 7.39839 2.66586 2.51014 -1.90269 -1.25657 1.30328
18 1 C 10.6026 10.9457 10.7405 -2.85199 -1.81439 -0.0189896 -2.17867 0.346305 0.4843
24 2 H 9.11192 11.4071 12.3956 20.3575 -3.09793 16.0706 0.523403 -0.266122 -0.669801
17 1 C 9.27634 11.3588 11.294 -8.65132 -2.50649 -7.25054 -0.385569 -0.307582 -0.253188
25 2 H 9.20021 12.367 10.8909 19.6354 -29.4818 -27.0526 -0.742141 0.583113 -0.126529
12 2 H 9.8445 7.27754 9.11008 -25.759 9.64143 -13.284 0.487843 0.670238 0.432388
3 1 C 10.2737 8.22989 9.51753 -0.645635 5.23487 1.10962 2.20666 -0.958 0.177375
13 2 H 11.409 8.22311 9.49654 5.47042 1.23639 -9.84404 -0.875383 -0.428285 -0.15996
11 2 H 10.049 8.33268 10.5729 -9.33387 21.7077 9.86742 -0.343518 -0.138747 0.453156
20 1 C 11.5892 10.7675 11.7509 -0.338925 3.77291 5.41704 1.79419 -0.968091 -1.19369
29 2 H 14.0158 8.94437 11.9179 8.62556 -36.8574 8.26187 0.0761488 -0.989278 0.10232
22 3 O 12.8377 10.4035 11.1626 -5.87901 -0.61505 0.66678 -1.46266 0.416165 0.440562
21 3 O 11.4419 10.8152 12.9667 4.24893 -4.90309 1.08922 -0.303016 0.27744 0.224686
23 1 C 13.7624 9.96437 12.1282 4.48303 -1.84661 -4.82785 2.26698 1.2436 -0.725805
31 2 H 14.7064 10.5658 11.9674 21.0096 -4.41391 -4.03086 -0.564127 -0.444779 0.145326
30 2 H 13.4417 10.1528 13.1342 11.4877 38.4036 -19.4063 -0.418399 -0.139747 0.681383
ITEM: TIMESTEP
5000
ITEM: NUMBER OF ATOMS
31
ITEM: BOX BOUNDS pp pp pp
0.0000000000000000e+00 2.0000000000000000e+01
0.0000000000000000e+00 2.0000000000000000e+01
0.0000000000000000e+00 2.0000000000000000e+01
ITEM: ATOMS id type element x y z vx vy vz fx fy fz
8 2 H 8.43458 11.7108 7.27941 -7.23256 11.1018 -13.0971 1.12488 -0.228903 1.10588
1 1 C 9.36049 11.7155 7.95896 -0.219143 9.1216 -8.25312 -0.916753 0.339699 0.436973
9 2 H 10.2181 11.9225 7.36007 14.1256 -1.99444 29.8565 0.972424 -0.305889 -0.856951
10 2 H 9.3559 12.5966 8.60661 16.3315 7.71343 8.78066 -0.657956 0.333434 -0.0534885
14 2 H 7.01488 7.68878 9.79271 2.02484 3.48079 3.84578 -0.488611 -0.425036 -0.547087
12 2 H 10.6813 9.2431 7.55894 -8.50863 15.7145 -7.09943 0.255725 0.20259 0.36462
7 1 C 7.11784 7.66444 8.68492 2.83256 -7.14175 3.9575 1.77134 -0.461014 0.45863
6 3 O 8.3568 8.43956 8.45964 5.7602 1.2336 1.46899 0.350798 0.0854015 -0.156734
2 1 C 9.58484 10.5042 8.925 -14.2403 -1.50044 1.3171 -0.659913 0.360441 0.199738
5 3 O 7.19939 10.1657 9.25706 0.520115 4.26173 6.22098 0.313675 0.721476 0.292116
4 1 C 8.29914 9.74279 8.91194 -2.43253 0.094961 -6.76257 -1.92886 -1.32635 0.0809323
27 2 H 10.7525 11.7174 10.3555 5.24227 8.07385 -5.06797 -1.0157 0.040733 -0.0651555
19 1 C 9.84719 11.0643 10.4581 -3.55915 1.73828 -5.48581 0.136516 0.156709 -0.293286
28 2 H 8.92388 11.6332 10.7958 -8.95857 7.12992 0.731396 0.859708 -0.626921 -0.27196
16 2 H 6.27073 8.10624 8.19012 -1.70741 5.0533 -10.7239 -0.473905 0.34502 -0.236357
3 1 C 10.7656 9.63986 8.59369 3.10308 0.323838 -3.06144 0.413071 -0.153239 -0.653384
13 2 H 11.6351 10.3191 8.70977 -4.28792 -7.91562 -1.43275 0.0773804 -0.747183 -0.178745
15 2 H 7.35416 6.64043 8.26881 15.2737 12.9542 -4.60121 -0.243589 0.928029 0.535601
11 2 H 10.802 8.76848 9.28243 -21.8627 -7.78479 21.9581 0.308 0.42751 -0.303208
22 3 O 12.4364 10.7993 11.05 -5.26754 -2.68922 1.04488 -0.183988 -0.354281 -0.539596
31 2 H 14.3141 10.976 10.2311 -13.8097 12.6281 -2.39006 -0.0183788 -0.472568 -0.146952
26 2 H 9.86658 7.95855 11.5839 -1.65461 15.4962 -3.8889 -0.830758 0.067503 0.514515
17 1 C 9.35128 8.90472 11.8825 5.77814 -4.09864 -0.846216 1.07942 0.812132 0.267008
18 1 C 10.2972 9.97447 11.3898 -0.749168 1.01907 3.31964 -0.915126 0.426945 0.230001
25 2 H 8.36739 9.0841 11.4382 -11.6994 -6.39364 -10.2974 -0.05473 -0.407103 -0.0497159
29 2 H 14.2978 10.0463 11.809 20.5568 -1.42379 16.9036 0.0631295 -1.05405 0.437786
23 1 C 13.8553 10.8044 11.2101 1.72023 -1.78859 0.353518 -0.42935 3.56623 0.401089
24 2 H 9.2571 9.01217 12.9984 -7.75328 -4.46181 -11.7114 0.116502 -0.510366 -0.666105
20 1 C 11.6917 9.90309 11.7541 1.42945 -5.72082 -0.21267 1.55361 -1.77665 0.65768
30 2 H 13.9282 11.818 11.7307 12.1269 24.881 10.6668 0.892412 -1.02133 -0.20015
21 3 O 12.27 9.05914 12.5022 3.85745 -2.77422 1.61886 -1.47098 1.05703 -0.763695
ITEM: TIMESTEP
6000
ITEM: NUMBER OF ATOMS
31
ITEM: BOX BOUNDS pp pp pp
0.0000000000000000e+00 2.0000000000000000e+01
0.0000000000000000e+00 2.0000000000000000e+01
0.0000000000000000e+00 2.0000000000000000e+01
ITEM: ATOMS id type element x y z vx vy vz fx fy fz
12 2 H 10.0076 11.5028 7.77251 -40.6684 14.9309 1.59024 -0.620714 -0.678813 0.548113
8 2 H 7.40768 12.0176 10.5076 11.1703 -11.8167 -20.1733 0.191291 -0.284556 -0.00562849
16 2 H 6.75022 8.71917 7.27757 1.22332 -10.0701 4.37948 1.19879 -0.760765 0.281478
3 1 C 10.2274 11.025 8.76217 -0.718766 0.593832 0.607252 1.46946 1.59807 -0.415468
13 2 H 10.8296 11.8342 9.22042 -0.748412 12.6999 4.90285 0.350155 -0.312423 0.0773946
10 2 H 8.81225 12.9756 10.1257 13.018 17.7691 -29.5583 1.04447 0.565583 0.537747
1 1 C 8.28646 12.0891 9.84655 -1.75052 -9.61676 5.35013 -1.44863 0.160024 -0.82576
9 2 H 7.87049 12.3609 8.83805 0.611735 -36.8778 12.5505 0.195407 -0.390313 0.512467
15 2 H 8.31125 8.00416 6.59304 5.07728 -6.99727 -11.1185 0.272895 -0.455854 -0.96237
7 1 C 7.75647 8.20555 7.47926 1.14239 4.02584 0.183378 -1.50461 0.25841 1.17859
6 3 O 8.62281 9.05708 8.2163 2.50969 5.87348 -0.779199 1.69139 0.131689 -1.15241
11 2 H 10.8814 10.1687 8.58104 -19.5464 10.2747 12.2823 -0.0447293 -0.137107 0.0825539
5 3 O 6.94367 9.66551 9.5044 -6.26739 6.21107 5.28448 0.179639 0.282073 0.523534
4 1 C 8.1262 9.79236 9.18355 -1.98454 -5.64489 -3.69224 -1.89979 -0.121063 0.425006
2 1 C 9.10825 10.7957 9.74714 1.252 -1.9267 -6.42682 -1.08481 0.226573 -0.89549
14 2 H 7.65283 7.322 8.13944 11.5767 17.5386 22.8657 -0.509946 -0.0983547 -0.666812
19 1 C 9.60001 10.3252 11.073 -0.743794 -3.40534 0.823564 1.95961 -1.41366 -0.180262
31 2 H 13.5434 12.1772 12.341 3.04641 -11.4457 -2.09332 -0.441429 0.282902 0.244399
27 2 H 10.0799 11.1463 11.5659 -18.5535 -4.89413 -14.3747 0.258833 0.708056 0.446023
18 1 C 10.6637 9.17621 10.9884 -2.04306 2.62703 -6.39297 -1.89186 1.43659 0.239415
20 1 C 12.0763 9.46353 11.093 3.76777 3.75415 -12.4022 -1.63531 2.63799 1.15096
28 2 H 8.82797 9.94332 11.7094 9.38033 -7.99291 -7.37103 -0.98997 -0.112542 0.37261
22 3 O 12.2256 10.7932 11.6373 0.750227 -5.26326 2.94304 -0.595739 -1.37579 -0.420435
23 1 C 13.5346 11.2611 11.7532 -3.43294 2.00701 2.87025 0.827408 0.302583 1.1062
26 2 H 9.34693 7.39229 10.4887 -21.8311 17.6142 -30.5485 0.264346 0.717323 -0.578813
25 2 H 9.9335 7.4459 12.0497 20.1637 -12.8297 33.8495 0.536484 0.30554 -0.0614149
17 1 C 10.2372 7.77638 11.0208 -1.64793 1.05487 4.26265 0.314383 -1.1457 0.426861
21 3 O 13.0041 8.75703 10.8368 10.6014 0.996157 2.30288 1.85353 -1.35728 -0.522151
29 2 H 13.9503 11.5172 10.8174 2.6097 -23.0849 28.5579 0.574541 0.219007 -1.5975
30 2 H 14.2515 10.5993 12.2499 -24.9177 -14.3958 3.29822 -0.192188 -0.55127 0.0536844
24 2 H 11.1501 7.23474 10.7283 1.24981 3.31981 12.744 -0.322911 -0.636928 0.0774756
ITEM: TIMESTEP
7000
ITEM: NUMBER OF ATOMS
31
ITEM: BOX BOUNDS pp pp pp
0.0000000000000000e+00 2.0000000000000000e+01
0.0000000000000000e+00 2.0000000000000000e+01
0.0000000000000000e+00 2.0000000000000000e+01
ITEM: ATOMS id type element x y z vx vy vz fx fy fz
16 2 H 6.26879 10.0737 7.03127 -5.66255 -8.04938 -36.1459 -0.298281 -0.13294 -0.37304
15 2 H 7.87409 10.4422 6.19469 -0.779977 -0.0506332 -2.58769 -0.914089 -0.924313 0.863669
14 2 H 7.48373 8.7333 6.82288 -18.9792 -2.34406 16.1187 -0.0261685 0.54839 0.320794
7 1 C 7.33077 9.82411 7.00434 3.93208 0.484115 6.39146 0.64944 0.436758 -1.32442
6 3 O 7.88249 10.3102 8.21596 1.15965 -0.00132923 -2.57298 0.479722 -0.119413 0.594906
12 2 H 9.04398 12.4176 9.54084 -6.70429 11.941 0.0731978 -0.700136 0.174497 0.222362
4 1 C 8.07547 9.47277 9.28826 0.482013 -4.11049 -1.93494 0.785194 2.25859 -0.734483
11 2 H 10.0928 11.2948 8.87595 1.77474 -9.3237 1.44974 0.385302 -0.604328 -0.453898
3 1 C 9.60707 11.5292 9.80934 -3.1763 4.54401 5.83777 0.382061 0.300621 1.03036
9 2 H 6.9266 11.6367 10.9745 -15.6962 -8.43138 -7.79346 1.02127 -1.59736 0.124745
13 2 H 10.4315 11.8842 10.498 6.4853 -45.9573 -7.00263 -0.797991 -0.501536 -0.265684
26 2 H 10.4056 7.31467 9.16793 21.408 -0.0633211 -0.0245721 -0.0209227 -0.156932 0.578142
5 3 O 7.72118 8.32415 9.29983 -1.64024 -0.47307 3.19861 -0.23459 -1.04763 0.414404
2 1 C 8.80112 10.3271 10.4026 0.847342 -3.01493 0.880826 -0.698117 -0.398828 -1.00033
1 1 C 7.57767 10.7392 11.324 1.45263 1.90872 0.432758 0.549345 1.25868 0.0176121
10 2 H 8.01055 11.0394 12.2738 2.13563 -20.0421 25.5356 0.314615 0.588496 0.45751
24 2 H 10.6266 8.7832 8.34793 12.4312 -9.56127 11.1426 0.18398 0.127441 -0.112823
17 1 C 11.0693 8.18518 9.17247 5.83843 6.32301 4.57805 0.742553 0.120766 -0.77483
18 1 C 11.1173 9.02808 10.3872 -6.23785 -1.24731 -11.794 -1.02931 0.585712 0.494448
21 3 O 13.5173 9.51824 10.2053 -2.61885 -1.72189 -5.42446 -0.345667 0.224758 -0.678658
28 2 H 9.15926 8.44876 11.3211 1.25022 -13.2819 6.06999 0.58555 0.0483934 -0.245984
19 1 C 9.76826 9.36389 11.1275 2.51371 4.453 -5.18258 0.236688 -0.117136 0.152984
20 1 C 12.4099 9.70957 10.7055 -0.788141 8.08667 0.616533 -0.428456 -1.29211 1.21941
29 2 H 12.9229 12.0168 12.9697 5.46488 -9.10771 17.0525 0.0082691 -0.350849 -0.040369
8 2 H 6.98416 9.89029 11.6592 8.6403 16.2188 9.4727 -0.414031 -0.36704 -0.569068
25 2 H 12.1023 7.89457 8.84283 -4.8457 -3.85318 10.1717 -0.689511 0.186425 0.229343
30 2 H 13.8383 11.7247 11.4177 -15.3843 -17.0544 15.5278 -0.33652 -0.82662 1.46256
27 2 H 9.90936 9.82445 12.1181 -8.59979 6.48968 -7.20769 0.564213 -0.135636 -0.119548
22 3 O 12.2597 10.3985 11.8794 0.570227 -1.74199 -5.13867 0.0641572 0.863148 0.578677
23 1 C 13.3671 11.2165 12.351 -0.351436 -1.60046 9.39142 0.180237 0.925987 -1.76197
31 2 H 14.1202 10.6557 12.9321 3.43634 -13.6022 -3.95535 -0.198801 -0.0759865 -0.306816
ITEM: TIMESTEP
8000
ITEM: NUMBER OF ATOMS
31
ITEM: BOX BOUNDS pp pp pp
0.0000000000000000e+00 2.0000000000000000e+01
0.0000000000000000e+00 2.0000000000000000e+01
0.0000000000000000e+00 2.0000000000000000e+01
ITEM: ATOMS id type element x y z vx vy vz fx fy fz
15 2 H 5.94365 10.3672 8.02308 -25.6443 13.2117 -7.36034 0.221068 0.518302 0.163655
14 2 H 6.55633 12.1812 8.11808 -4.83652 -10.1707 -15.3306 0.124408 -1.61228 0.0358764
16 2 H 7.48857 10.8344 7.22535 -13.0729 -26.1747 1.28971 -0.695889 0.310228 0.258946
7 1 C 6.8104 11.0609 8.09091 8.91321 3.18726 -1.15142 0.477917 0.912197 -0.880349
24 2 H 11.1452 10.5889 7.56793 -0.246685 -26.5509 -14.539 -0.333015 -0.0340767 0.111754
6 3 O 7.60564 10.7917 9.26778 0.664501 -5.80132 1.36037 -0.654136 0.592721 -0.470026
26 2 H 11.1022 8.82643 7.41479 -4.39827 9.74378 3.858 -0.625136 -0.133984 0.510685
17 1 C 11.528 9.64677 8.00545 1.70699 2.12209 -2.82953 0.327712 0.397018 -0.365098
25 2 H 12.5629 9.66993 7.60169 7.95973 35.2353 -3.40238 0.136304 0.072404 0.927529
5 3 O 7.94859 8.68692 8.42117 -8.08533 -0.293049 0.996126 0.252631 1.3857 0.705031
4 1 C 8.13197 9.5682 9.284 -7.13004 0.995996 0.068707 -0.269766 -1.5719 -0.538823
11 2 H 9.43441 11.3756 11.2055 5.2972 10.1436 7.69152 0.219372 -0.365839 -0.414955
18 1 C 11.3424 9.62644 9.51007 -3.84572 2.96738 4.2651 0.616062 0.00853831 -0.685035
2 1 C 8.85924 9.31199 10.5663 -2.54949 -5.40382 5.01318 0.906838 -1.39169 0.00388467
21 3 O 13.4646 10.8737 10.0141 2.80267 3.29147 5.67326 -1.28185 -0.239601 -0.459444
12 2 H 7.92286 10.8593 11.7865 17.109 -10.7963 -23.7063 -0.0107512 -0.403129 -0.0077352
3 1 C 8.9253 10.4578 11.5484 6.96847 -7.27029 5.70511 -0.6935 1.80114 -0.512429
28 2 H 10.2032 7.80752 9.63299 -35.9293 5.78597 2.73129 -0.105029 0.229192 0.248833
19 1 C 10.3047 8.7389 10.2239 -4.68572 9.28181 -4.18671 0.575982 0.957288 -1.02053
20 1 C 12.41 10.3011 10.3292 5.74776 -0.831884 -2.69841 0.189341 -0.887541 0.472576
9 2 H 7.11149 8.6084 11.61 -9.11992 17.2346 -6.28236 -0.190687 -0.160194 -0.14909
1 1 C 8.06753 8.17693 11.2809 6.80672 -4.64776 -5.02042 0.332456 1.14718 1.69156
13 2 H 9.397 10.2245 12.4762 17.6536 4.32463 -15.1503 0.489696 -0.67072 0.807366
8 2 H 7.90586 7.20767 10.8636 -6.70288 -3.54252 40.4281 0.0328725 -0.540552 -1.13234
27 2 H 10.8065 8.60017 11.167 -3.5755 -24.4027 -14.1996 -0.159538 -0.738599 0.680977
22 3 O 12.1318 10.0178 11.6613 -0.590841 3.5881 -7.30805 0.951381 1.35503 1.05493
31 2 H 14.0684 10.3914 12.4297 14.9171 -2.00129 30.707 1.33002 -0.485382 -0.400447
10 2 H 8.61217 7.999 12.2236 -19.4937 20.4217 -26.3026 -0.00900907 -0.0795186 0.0372988
23 1 C 13.0658 10.6311 12.6554 1.74411 -2.5073 0.243611 -1.57965 1.39861 -1.14407
30 2 H 13.0018 11.77 12.7218 3.42822 11.1473 32.7485 -0.233617 -1.17023 -0.475259
29 2 H 12.7584 10.2407 13.5937 -23.6299 -10.9717 2.40372 -0.342484 -0.6003 0.944742
ITEM: TIMESTEP
9000
ITEM: NUMBER OF ATOMS
31
ITEM: BOX BOUNDS pp pp pp
0.0000000000000000e+00 2.0000000000000000e+01
0.0000000000000000e+00 2.0000000000000000e+01
0.0000000000000000e+00 2.0000000000000000e+01
ITEM: ATOMS id type element x y z vx vy vz fx fy fz
16 2 H 6.73968 11.6904 9.9286 6.48929 20.0384 -28.5659 -1.35551 0.456301 -0.163949
26 2 H 11.3008 10.3854 6.90223 22.8337 13.212 -12.9048 -0.0644343 -0.522988 0.12502
24 2 H 9.87697 11.0198 7.64267 3.94919 -0.0245087 -31.0285 -0.122252 0.359706 0.100969
17 1 C 10.946 10.8598 7.83254 4.21884 5.06618 -0.248946 0.0245716 -0.327123 -0.502812
15 2 H 8.0133 12.6292 10.8645 -10.665 15.6731 -6.02604 -0.142952 0.276384 0.186862
7 1 C 7.76516 11.9093 10.0957 1.24449 6.09689 6.65467 1.87204 -0.965176 -1.70684
25 2 H 11.5304 11.7786 7.82079 35.9192 -9.14895 -6.44592 -0.251247 0.432918 0.571898
14 2 H 8.26467 12.1523 9.09089 14.3015 7.27074 6.8128 -0.714591 0.0922272 1.17033
28 2 H 10.1665 8.27645 8.32387 13.8462 -12.9167 -12.8408 0.648414 -0.114593 0.00571739
5 3 O 7.57487 9.66189 8.67558 0.518182 -3.93905 5.90246 -0.20726 -0.215515 -0.823321
4 1 C 8.20308 9.57167 9.72543 -5.47132 1.95155 4.60037 -0.628899 1.00336 0.114455
6 3 O 8.33265 10.6575 10.5392 2.15128 -2.83132 3.8792 0.802708 0.0163582 0.969143
19 1 C 10.7002 8.71619 9.17713 3.9631 -6.5142 3.55926 -0.345797 -0.0874189 -0.359244
18 1 C 11.1603 10.0058 9.04111 -9.8392 9.50078 1.23815 1.21722 0.77593 1.10244
20 1 C 11.8798 10.652 10.233 -4.10759 -3.51315 -0.49318 -1.17475 -0.00632414 -0.824863
21 3 O 11.9548 11.8722 10.4193 3.73378 0.19342 -5.13256 0.233645 -0.78188 -0.379351
8 2 H 8.1943 7.21746 8.56687 -13.3404 1.23374 1.19679 0.029082 0.0440639 0.170502
9 2 H 7.51987 6.72748 10.1127 -1.30532 -22.0432 -53.6582 0.0694762 -0.348938 0.216012
1 1 C 8.43586 7.10164 9.63842 10.534 -3.97291 -0.459276 -1.07407 0.884219 -0.768736
27 2 H 11.1532 8.08742 9.94915 12.2028 10.8284 -5.25221 -0.127339 -0.0166376 -0.25446
2 1 C 8.83846 8.38219 10.2371 -10.315 -0.368138 -2.86016 0.687782 0.303224 1.55157
3 1 C 9.35021 8.38146 11.6984 -1.60829 -2.86043 -7.52025 -0.596707 -1.40883 -1.35262
11 2 H 9.75024 9.33842 11.9066 -8.16264 -16.5798 -2.05088 0.625605 1.07244 0.397595
10 2 H 9.26675 6.46504 9.73487 -8.12786 16.8884 10.1652 0.947732 -1.58735 0.25394
13 2 H 10.1371 7.58358 11.8566 7.33007 -8.56022 -2.73774 -0.868398 0.612544 -0.0114301
22 3 O 12.3246 9.71867 11.1432 -4.16048 -0.311955 -3.09532 -0.153579 0.060217 -0.413495
31 2 H 13.4077 11.2561 11.8768 -28.5196 -28.2126 -4.8199 0.356701 0.630388 0.049553
12 2 H 8.47008 8.24534 12.3483 4.07788 -6.24366 13.2382 0.213373 -0.276112 0.21257
23 1 C 13.0939 10.277 12.2068 2.56964 3.64507 4.12789 0.106305 0.150381 0.596752
30 2 H 12.4955 10.4329 13.1396 13.6535 14.9634 1.95662 0.272198 -0.431332 -0.491529
29 2 H 13.9781 9.63719 12.3426 4.91318 5.34412 5.84225 -0.279068 -0.0804439 0.257317
ITEM: TIMESTEP
10000
ITEM: NUMBER OF ATOMS
31
ITEM: BOX BOUNDS pp pp pp
0.0000000000000000e+00 2.0000000000000000e+01
0.0000000000000000e+00 2.0000000000000000e+01
0.0000000000000000e+00 2.0000000000000000e+01
ITEM: ATOMS id type element x y z vx vy vz fx fy fz
26 2 H 12.2272 11.9722 6.96913 -13.469 20.3994 1.64564 0.373637 -0.206149 0.376741
28 2 H 12.1107 8.69598 7.73957 -29.2285 10.6439 14.5194 -0.302056 -0.144677 -0.547048
24 2 H 11.1817 10.6617 6.42564 42.3405 -11.7605 5.39889 0.170746 -0.293903 0.553196
17 1 C 11.4187 11.3001 7.2971 4.95667 3.2888 -3.87512 0.0525782 -0.10888 0.0617617
25 2 H 10.6021 11.9752 7.39681 -8.79116 17.1674 16.1249 -1.12785 0.774913 0.113637
8 2 H 7.92628 9.71567 8.16799 21.5892 21.4486 -9.21245 0.406852 0.816885 0.249227
19 1 C 11.9453 9.2764 8.62688 -10.1794 3.03044 4.04419 -0.0788934 1.35397 2.38638
5 3 O 8.38135 10.1551 10.565 -0.78688 -0.704326 0.838138 -0.104825 -0.00205883 0.109392
18 1 C 11.6267 10.6045 8.65431 -0.81506 -7.59883 -1.30464 0.396978 -1.02423 -3.27268
14 2 H 7.2523 9.1278 13.628 -10.6625 -3.88233 4.33579 -1.57616 0.819011 0.553336
9 2 H 7.078 8.34539 7.6335 -19.7246 -15.3487 -26.4463 0.192913 -0.347605 -0.111383