# winmostar

       750 atoms    

         3 atom types    

      -10.319565000000030        10.319564999999966 xlo xhi
      -10.319565000000016        10.319564999999984 ylo yhi
      -10.319564999999998        10.319564999999998 zlo zhi

Masses

    1        12.011000000000000 # C    
    2        15.999000000000000 # O    
    3         1.008000000000000 # H    

Atoms

       1     1        -6.048000000000000         7.621000000000000         1.463000000000000
       2     1        -4.580000000000000         7.919000000000000         1.756000000000000
       3     2        -6.581000000000000         8.720000000000000         0.750000000000000
       4     3        -6.217000000000000         6.666000000000000         0.906000000000000
       5     1        -6.813000000000000         7.505000000000000         2.789000000000000
       6     3        -4.008000000000000         8.019000000000000         0.806000000000000
       7     3        -4.458000000000000         8.868000000000000         2.327000000000000
       8     3        -4.110000000000000         7.098000000000000         2.344000000000000
       9     3        -7.290000000000000         8.394000000000000         0.184000000000000
      10     3        -6.346000000000000         6.705000000000000         3.412000000000000
      11     3        -6.724000000000000         8.459000000000000         3.363000000000000
      12     1        -8.301000000000000         7.167000000000000         2.609000000000000
      13     3        -8.844000000000000         7.977000000000000         2.069000000000000
      14     3        -8.433000000000000         6.221000000000000         2.036000000000000
      15     3        -8.801000000000000         7.037000000000000         3.596000000000000
      16     1        -0.356000000000000         2.761000000000000         3.230000000000000
      17     1         0.290000000000000         3.689000000000000         2.205000000000000
      18     2         0.485000000000000         2.713000000000000         4.365000000000000
      19     3        -1.396000000000000         3.053000000000000         3.517000000000000
      20     1        -0.438000000000000         1.343000000000000         2.646000000000000
      21     3         0.369000000000000         4.722000000000001         2.613000000000000
      22     3         1.317000000000000         3.352000000000000         1.933000000000000
      23     3        -0.316000000000000         3.745000000000000         1.271000000000000
      24     3        -0.065000000000000         2.546000000000000         5.139000000000000
      25     3        -1.018000000000000         1.373000000000000         1.692000000000000
      26     3         0.587000000000000         0.978000000000000         2.392000000000000
      27     1        -1.110000000000000         0.332000000000000         3.586000000000000
      28     3        -0.524000000000000         0.190000000000000         4.524000000000000
      29     3        -2.137000000000000         0.662000000000000         3.866000000000000
      30     3        -1.198000000000000        -0.666000000000000         3.098000000000000
      31     1         7.354000000000000         0.136000000000000         7.170000000000000
      32     1         7.075000000000000         1.416000000000000         7.952000000000000
      33     2         6.195000000000000        -0.180000000000000         6.424000000000000
      34     3         8.250000000000000         0.195000000000000         6.505000000000000
      35     1         7.606000000000000        -1.013000000000000         8.156000000000000
      36     3         6.878000000000000         2.261000000000000         7.255000000000000
      37     3         6.185000000000000         1.309000000000000         8.615000000000000
      38     3         7.946000000000000         1.702000000000000         8.585000000000001
      39     3         6.468000000000000        -0.653000000000000         5.631000000000000
      40     3         8.460000000000001        -0.743000000000000         8.823000000000000
      41     3         6.712000000000000        -1.154000000000000         8.811000000000000
      42     1         7.936000000000000        -2.347000000000000         7.470000000000000
      43     3         7.082000000000000        -2.717000000000000         6.857000000000000
      44     3         8.823000000000000        -2.249000000000000         6.802000000000000
      45     3         8.167000000000000        -3.135000000000000         8.223000000000001
      46     1         5.021000000000000        -2.056000000000000         1.008000000000000
      47     1         6.401000000000000        -1.428000000000000         0.831000000000000
      48     2         5.072000000000000        -2.907000000000000         2.136000000000000
      49     3         4.192000000000000        -1.313000000000000         1.107000000000000
      50     1         4.700000000000000        -2.921000000000000        -0.219000000000000
      51     3         6.660000000000000        -0.804000000000000         1.717000000000000
      52     3         7.195000000000000        -2.202000000000000         0.718000000000000
      53     3         6.433000000000000        -0.765000000000000        -0.064000000000000
      54     3         4.192000000000000        -2.939000000000000         2.527000000000000
      55     3         4.751000000000001        -2.287000000000000        -1.137000000000000
      56     3         5.472000000000001        -3.720000000000000        -0.332000000000000
      57     1         3.310000000000000        -3.573000000000000        -0.162000000000000
      58     3         3.228000000000000        -4.290000000000000         0.687000000000000
      59     3         2.510000000000000        -2.806000000000000        -0.045000000000000
      60     3         3.099000000000000        -4.142000000000001        -1.096000000000000
      61     1         2.632000000000000        -4.689000000000000        -4.179000000000000
      62     1         4.045000000000000        -4.156000000000000        -3.956000000000000
      63     2         2.591000000000000        -5.291000000000001        -5.458000000000000
      64     3         2.285000000000000        -5.402999999999999        -3.392000000000000
      65     1         1.644000000000000        -3.514000000000000        -4.181000000000000
      66     3         4.780000000000000        -4.992000000000000        -3.962000000000000
      67     3         4.344000000000000        -3.435000000000000        -4.751000000000001
      68     3         4.131999999999999        -3.642000000000000        -2.971000000000000
      69     3         1.930000000000000        -5.991000000000000        -5.438000000000000
      70     3         1.729000000000000        -2.962000000000000        -3.214000000000000
      71     3         1.913000000000000        -2.793000000000000        -4.990999999999999
      72     1         0.181000000000000        -3.945000000000000        -4.361000000000000
      73     3         0.013000000000000        -4.424000000000001        -5.354000000000000
      74     3        -0.126000000000000        -4.668999999999999        -3.572000000000000
      75     3        -0.502000000000000        -3.067000000000000        -4.299000000000001
      76     1        -7.697000000000000         6.265000000000000         7.547000000000000
      77     1        -7.608000000000000         4.744000000000000         7.455000000000000
      78     2        -8.830000000000000         6.588000000000000         8.328000000000000
      79     3        -6.778000000000000         6.750000000000000         7.960000000000000
      80     1        -7.914000000000000         6.843000000000000         6.142000000000000
      81     3        -7.461000000000000         4.301999999999999         8.467000000000000
      82     3        -8.535000000000000         4.301000000000000         7.023000000000000
      83     3        -6.745000000000000         4.426000000000000         6.825000000000000
      84     3        -8.661000000000000         7.428000000000000         8.769000000000000
      85     3        -7.076000000000000         6.518000000000000         5.479000000000000
      86     3        -8.855000000000000         6.431000000000000         5.704000000000000
      87     1        -7.980000000000000         8.377000000000001         6.115000000000000
      88     3        -8.855000000000000         8.760999999999999         6.689000000000000
      89     3        -7.058000000000000         8.829000000000000         6.549000000000000
      90     3        -8.081000000000000         8.753000000000000         5.071000000000000
      91     1         4.433000000000000        -3.564000000000000         5.623999999999999
      92     1         5.458999999999999        -4.445000000000000         4.917000000000000
      93     2         5.019999999999999        -2.295000000000000         5.836000000000000
      94     3         3.463000000000000        -3.466000000000000         5.077000000000000
      95     1         4.111000000000000        -4.168999999999999         6.997000000000000
      96     3         5.716999999999999        -4.017000000000001         3.921000000000000
      97     3         6.404000000000000        -4.530000000000000         5.503000000000000
      98     3         5.063000000000000        -5.472000000000001         4.746000000000001
      99     3         4.317999999999999        -1.636000000000000         5.838000000000000
     100     3         3.735000000000000        -5.211000000000000         6.860000000000000
     101     3         5.043000000000000        -4.237000000000000         7.610000000000000
     102     1         3.054000000000000        -3.377000000000000         7.782000000000000
     103     3         3.410000000000000        -2.350000000000000         8.030000000000000
     104     3         2.107000000000000        -3.284000000000000         7.202000000000000
     105     3         2.811000000000000        -3.883000000000000         8.744000000000000
     106     1         2.968000000000000        -0.330000000000000         3.115000000000000
     107     1         1.991000000000000        -1.495000000000000         2.977000000000000
     108     2         4.268000000000000        -0.867000000000000         3.258000000000000
     109     3         2.929000000000000         0.399000000000000         2.269000000000000
     110     1         2.639000000000000         0.453000000000000         4.394000000000000
     111     3         2.219000000000000        -2.085000000000000         2.060000000000000
     112     3         2.049000000000000        -2.188000000000000         3.848000000000000
     113     3         0.941000000000000        -1.135000000000000         2.889000000000000
     114     3         4.896000000000000        -0.231000000000000         2.897000000000000
     115     3         1.580000000000000         0.805000000000000         4.346000000000000
     116     3         2.719000000000000        -0.220000000000000         5.282000000000000
     117     1         3.543000000000000         1.676000000000000         4.611000000000000
     118     3         4.607000000000000         1.380000000000000         4.756999999999999
     119     3         3.494000000000000         2.373000000000000         3.743000000000000
     120     3         3.231000000000000         2.245000000000000         5.517000000000001
     121     1         3.233000000000000         3.739000000000000        -1.730000000000000
     122     1         2.193000000000000         4.601000000000000        -2.441000000000000
     123     2         3.340000000000000         2.517000000000000        -2.433000000000000
     124     3         4.232999999999999         4.227000000000000        -1.625000000000000
     125     1         2.739000000000000         3.423000000000000        -0.311000000000000
     126     3         2.526000000000000         4.833000000000000        -3.478000000000000
     127     3         1.207000000000000         4.086000000000000        -2.509000000000000
     128     3         2.042000000000000         5.571000000000000        -1.914000000000000
     129     3         4.236000000000000         2.182000000000000        -2.316000000000000
     130     3         2.553000000000000         4.380000000000000         0.234000000000000
     131     3         1.763000000000000         2.882000000000000        -0.360000000000000
     132     1         3.733000000000000         2.588000000000000         0.510000000000000
     133     3         3.891000000000000         1.579000000000000         0.062000000000000
     134     3         4.723000000000000         3.093000000000000         0.581000000000000
     135     3         3.359000000000000         2.432000000000000         1.548000000000000
     136     1        -3.843000000000000         7.271000000000000         7.018000000000000
     137     1        -4.151000000000000         6.104000000000000         7.952000000000000
     138     2        -5.058000000000000         7.936000000000000         6.737000000000000
     139     3        -3.082000000000000         7.985000000000000         7.418000000000000
     140     1        -3.290000000000000         6.724000000000000         5.695000000000000
     141     3        -4.566000000000000         6.478000000000000         8.916000000000000
     142     3        -4.900000000000001         5.407000000000000         7.509000000000000
     143     3        -3.232000000000000         5.519999999999999         8.189000000000000
     144     3        -4.860000000000000         8.863000000000000         6.566000000000000
     145     3        -2.380000000000000         6.111000000000000         5.903000000000000
     146     3        -4.040000000000000         6.044000000000000         5.222000000000001
     147     1        -2.909000000000000         7.822000000000000         4.691000000000000
     148     3        -3.797000000000000         8.414999999999999         4.373000000000000
     149     3        -2.162000000000000         8.526000000000000         5.127000000000000
     150     3        -2.460000000000000         7.382000000000000         3.771000000000000
     151     1        -7.252000000000000        -7.512000000000000        -3.552000000000000
     152     1        -8.174000000000000        -7.326000000000000        -2.350000000000000
     153     2        -6.505000000000000        -6.323000000000000        -3.716000000000000
     154     3        -6.576000000000000        -8.398999999999999        -3.475000000000000
     155     1        -8.103999999999999        -7.709000000000000        -4.814000000000000
     156     3        -7.576000000000000        -7.170000000000000        -1.424000000000000
     157     3        -8.842000000000000        -6.443000000000000        -2.475000000000000
     158     3        -8.812000000000000        -8.225000000000000        -2.187000000000000
     159     3        -5.659000000000000        -6.553000000000000        -4.115999999999999
     160     3        -8.775000000000000        -8.590000000000000        -4.668999999999999
     161     3        -8.762000000000000        -6.820000000000000        -4.971000000000000
     162     1        -7.271000000000000        -7.945000000000000        -6.083000000000000
     163     3        -6.643000000000000        -7.059000000000000        -6.333000000000000
     164     3        -6.597000000000000        -8.824000000000000        -5.966000000000000
     165     3        -7.930000000000000        -8.140000000000000        -6.960000000000000
     166     1        -2.619000000000000        -5.938000000000000         7.903000000000000
     167     1        -2.594000000000000        -7.459000000000000         8.026000000000000
     168     2        -3.481000000000000        -5.602000000000000         6.834000000000000
     169     3        -2.923000000000000        -5.410999999999999         8.840000000000000
     170     1        -1.212000000000000        -5.439000000000000         7.546000000000000
     171     3        -3.609000000000000        -7.845000000000000         8.273999999999999
     172     3        -2.269000000000000        -7.945000000000000         7.077000000000000
     173     3        -1.905000000000000        -7.789000000000000         8.837999999999999
     174     3        -3.862000000000000        -4.737000000000000         7.018000000000000
     175     3        -0.493000000000000        -5.778000000000000         8.331000000000000
     176     3        -0.880000000000000        -5.895000000000000         6.582000000000000
     177     1        -1.115000000000000        -3.910000000000000         7.435000000000000
     178     3        -1.745000000000000        -3.517000000000000         6.604000000000000
     179     3        -1.441000000000000        -3.415000000000000         8.379000000000000
     180     3        -0.067000000000000        -3.591000000000000         7.232000000000000
     181     1        -7.288000000000000         4.006999999999999        -7.949000000000000
     182     1        -8.166000000000000         2.759000000000000        -7.951000000000000
     183     2        -6.511000000000000         3.991000000000000        -6.768000000000000
     184     3        -6.637000000000000         4.107000000000000        -8.852000000000000
     185     1        -8.183000000000000         5.253000000000000        -7.906000000000000
     186     3        -7.535000000000000         1.841000000000000        -7.971000000000000
     187     3        -8.811000000000000         2.707000000000000        -7.043000000000000
     188     3        -8.826000000000000         2.729000000000000        -8.848000000000001
     189     3        -5.684999999999999         4.455000000000000        -6.947000000000000
     190     3        -8.876000000000000         5.237000000000000        -8.781000000000000
     191     3        -8.819000000000001         5.232000000000000        -6.987000000000000
     192     1        -7.398000000000000         6.573000000000000        -7.939000000000000
     193     3        -6.751000000000000         6.689000000000000        -7.039000000000000
     194     3        -6.747000000000000         6.632000000000000        -8.842000000000000
     195     3        -8.089000000000000         7.446000000000000        -7.964000000000000
     196     1         5.990000000000000         6.794000000000000         7.936000000000000
     197     1         5.599999999999999         5.338000000000000         8.170000000000000
     198     2         5.032000000000000         7.367000000000000         7.067000000000000
     199     3         6.087000000000000         7.396000000000000         8.872000000000000
     200     1         7.352000000000000         6.844000000000000         7.230000000000000
     201     3         4.607000000000000         5.277999999999999         8.672000000000000
     202     3         5.531000000000000         4.769999999999999         7.214000000000000
     203     3         6.337000000000000         4.822000000000000         8.828000000000000
     204     3         4.974999999999999         8.308999999999999         7.263000000000000
     205     3         8.108000000000000         6.310000000000000         7.855000000000000
     206     3         7.295000000000000         6.302000000000000         6.255000000000000
     207     1         7.860000000000000         8.272000000000000         6.979000000000000
     208     3         7.190000000000000         8.830000000000000         6.284000000000000
     209     3         7.929000000000000         8.849000000000000         7.929000000000000
     210     3         8.874000000000000         8.257999999999999         6.518000000000000
     211     1        -0.529000000000000         2.968000000000000        -6.011000000000000
     212     1         0.099000000000000         2.204000000000000        -4.848000000000000
     213     2        -1.393000000000000         2.083000000000000        -6.697000000000000
     214     3        -1.070000000000000         3.897000000000000        -5.707000000000000
     215     1         0.576000000000000         3.396000000000000        -6.987000000000000
     216     3        -0.688000000000000         1.874000000000000        -4.131999999999999
     217     3         0.643000000000000         1.296000000000000        -5.195000000000000
     218     3         0.815000000000000         2.844000000000000        -4.283000000000001
     219     3        -2.099000000000000         2.603000000000000        -7.095000000000000
     220     3         1.326000000000000         4.018000000000000        -6.441000000000000
     221     3         1.116000000000000         2.495000000000000        -7.368000000000000
     222     1         0.056000000000000         4.208999999999999        -8.182000000000000
     223     3        -0.631000000000000         3.607000000000000        -8.820000000000000
     224     3        -0.493000000000000         5.117000000000000        -7.843000000000000
     225     3         0.898000000000000         4.545000000000000        -8.830000000000000
     226     1        -1.933000000000000        -7.653000000000000         3.713000000000000
     227     1        -3.444000000000000        -7.685000000000000         3.505000000000000
     228     2        -1.685000000000000        -7.299000000000000         5.059000000000000
     229     3        -1.417000000000000        -8.611000000000001         3.452000000000000
     230     1        -1.324000000000000        -6.563000000000000         2.820000000000000
     231     3        -3.908000000000000        -8.462999999999999         4.152999999999999
     232     3        -3.916000000000000        -6.707000000000000         3.759000000000000
     233     3        -3.703000000000000        -7.932000000000000         2.450000000000000
     234     3        -0.851000000000000        -7.701000000000000         5.325999999999999
     235     3        -1.590000000000000        -6.769000000000000         1.756000000000000
     236     3        -1.766000000000000        -5.570000000000000         3.079000000000000
     237     1         0.206000000000000        -6.471000000000000         2.923000000000000
     238     3         0.532000000000000        -6.176000000000000         3.947000000000000
     239     3         0.686000000000000        -7.445000000000000         2.674000000000000
     240     3         0.607000000000000        -5.707000000000000         2.217000000000000
     241     1        -7.505000000000000         1.712000000000000         2.309000000000000
     242     1        -7.537000000000000         3.124000000000000         2.885000000000000
     243     2        -8.836000000000000         1.322000000000000         2.037000000000000
     244     3        -6.865000000000000         1.605000000000000         1.399000000000000
     245     1        -6.941000000000000         0.750000000000000         3.365000000000000
     246     3        -7.954000000000000         3.838000000000000         2.138000000000000
     247     3        -8.170000000000000         3.183000000000000         3.800000000000000
     248     3        -6.514000000000000         3.478000000000000         3.148000000000000
     249     3        -8.821999999999999         0.700000000000000         1.301000000000000
     250     3        -5.923000000000000         1.096000000000000         3.668000000000000
     251     3        -7.580000000000000         0.775000000000000         4.281000000000000
     252     1        -6.828000000000000        -0.701000000000000         2.873000000000000
     253     3        -7.828000000000000        -1.134000000000000         2.639000000000000
     254     3        -6.199000000000000        -0.769000000000000         1.956000000000000
     255     3        -6.362000000000000        -1.349000000000000         3.650000000000000
     256     1        -4.131999999999999        -7.107000000000000        -0.611000000000000
     257     1        -3.686000000000000        -7.676000000000000        -1.955000000000000
     258     2        -5.527999999999999        -6.893000000000000        -0.671000000000000
     259     3        -3.864000000000000        -7.746000000000000         0.266000000000000
     260     1        -3.458000000000000        -5.745000000000000        -0.393000000000000
     261     3        -4.172000000000000        -8.661000000000000        -2.140000000000000
     262     3        -3.955000000000000        -7.001000000000000        -2.800000000000000
     263     3        -2.584000000000000        -7.840000000000000        -1.980000000000000
     264     3        -5.884000000000000        -6.985000000000000         0.219000000000000
     265     3        -2.349000000000000        -5.873000000000000        -0.439000000000000
     266     3        -3.739000000000000        -5.045000000000000        -1.217000000000000
     267     1        -3.811000000000000        -5.097000000000001         0.955000000000000
     268     3        -4.897000000000000        -4.860000000000000         1.025000000000000
     269     3        -3.547000000000000        -5.767000000000000         1.806000000000000
     270     3        -3.255000000000000        -4.141000000000000         1.094000000000000
     271     1        -0.178000000000000        -1.342000000000000        -7.843000000000000
     272     1         1.167000000000000        -2.061000000000000        -7.808000000000000
     273     2         0.072000000000000         0.050000000000000        -7.849000000000000
     274     3        -0.828000000000000        -1.633000000000000        -8.705000000000000
     275     1        -0.960000000000000        -1.673000000000000        -6.564000000000000
     276     3         1.757000000000000        -1.825000000000000        -8.723000000000001
     277     3         1.775000000000000        -1.756000000000000        -6.925000000000000
     278     3         1.034000000000000        -3.167000000000000        -7.773000000000000
     279     3        -0.653000000000000         0.483000000000000        -8.313000000000000
     280     3        -1.086000000000000        -2.780000000000000        -6.488000000000000
     281     3        -0.377000000000000        -1.349000000000000        -5.668000000000000
     282     1        -2.353000000000000        -1.027000000000000        -6.514000000000000
     283     3        -2.290000000000000         0.086000000000000        -6.496000000000000
     284     3        -2.967000000000000        -1.324000000000000        -7.395000000000000
     285     3        -2.904000000000000        -1.341000000000000        -5.598000000000000
     286     1        -3.198000000000000         3.587000000000000         0.965000000000000
     287     1        -3.585000000000000         4.966000000000000         1.491000000000000
     288     2        -2.810000000000000         3.729000000000000        -0.387000000000000
     289     3        -2.395000000000000         3.082000000000000         1.558000000000000
     290     1        -4.426999999999999         2.668000000000000         1.007000000000000
     291     3        -2.709000000000000         5.652999999999999         1.459000000000000
     292     3        -4.399000000000000         5.426000000000000         0.884000000000000
     293     3        -3.929000000000000         4.914000000000000         2.549000000000000
     294     3        -2.165000000000000         3.042000000000000        -0.588000000000000
     295     3        -4.811000000000000         2.618000000000000         2.054000000000000
     296     3        -5.245000000000000         3.100000000000000         0.380000000000000
     297     1        -4.136999999999999         1.236000000000000         0.532000000000000
     298     3        -3.834000000000000         1.212000000000000        -0.540000000000000
     299     3        -3.322000000000000         0.770000000000000         1.132000000000000
     300     3        -5.041000000000001         0.593000000000000         0.634000000000000
     301     1        -6.980000000000000         1.970000000000000        -2.236000000000000
     302     1        -7.694000000000000         1.245000000000000        -1.098000000000000
     303     2        -5.984000000000000         2.797000000000000        -1.668000000000000
     304     3        -6.539000000000000         1.288000000000000        -3.004000000000000
     305     1        -7.983000000000000         2.875000000000000        -2.965000000000000
     306     3        -6.981000000000000         0.590000000000000        -0.548000000000000
     307     3        -8.132999999999999         1.960000000000000        -0.365000000000000
     308     3        -8.513000000000000         0.596000000000000        -1.483000000000000
     309     3        -5.269000000000000         2.887000000000000        -2.307000000000000
     310     3        -8.832000000000001         2.253000000000000        -3.340000000000000
     311     3        -8.414000000000000         3.617000000000000        -2.250000000000000
     312     1        -7.374000000000000         3.626000000000000        -4.159000000000000
     313     3        -6.577000000000000         4.333999999999999        -3.835000000000000
     314     3        -6.929000000000000         2.918000000000000        -4.896000000000000