# winmostar

       850 atoms    

         2 atom types    

      -10.766470000000034        10.766469999999963 xlo xhi
      -10.766470000000016        10.766469999999981 ylo yhi
      -10.766469999999998        10.766469999999998 zlo zhi

Masses

    1        12.011000000000000 # C    
    2         1.008000000000000 # H    

Atoms

       1     1        -6.303000000000000         7.664000000000000         2.392000000000000
       2     1        -5.157000000000000         8.533000000000000         1.988000000000000
       3     1        -7.339000000000000         8.506000000000000         3.061000000000000
       4     1        -6.878000000000000         7.019000000000000         1.174000000000000
       5     1        -5.809000000000000         6.618000000000000         3.337000000000000
       6     2        -5.521000000000000         9.303000000000001         1.291000000000000
       7     2        -4.732999999999999         9.007999999999999         2.885000000000000
       8     2        -4.394000000000000         7.913000000000000         1.495000000000000
       9     2        -6.897000000000000         8.981000000000000         3.949000000000000
      10     2        -7.684000000000000         9.276999999999999         2.355000000000000
      11     2        -8.183000000000000         7.866000000000000         3.359000000000000
      12     2        -7.227000000000000         7.803000000000000         0.485000000000000
      13     2        -6.100000000000000         6.412000000000000         0.688000000000000
      14     2        -7.722000000000000         6.379000000000000         1.472000000000000
      15     2        -5.040000000000000         6.014000000000000         2.834000000000000
      16     2        -5.380000000000000         7.109000000000000         4.223000000000000
      17     2        -6.653000000000000         5.978000000000000         3.635000000000000
      18     1        -3.194000000000000        -1.688000000000000         0.533000000000000
      19     1        -4.047000000000000        -2.742000000000000        -0.095000000000000
      20     1        -3.982000000000000        -0.996000000000000         1.597000000000000
      21     1        -1.987000000000000        -2.333000000000000         1.131000000000000
      22     1        -2.782000000000000        -0.708000000000000        -0.515000000000000
      23     2        -4.351000000000000        -3.464000000000000         0.677000000000000
      24     2        -4.936000000000000        -2.267000000000000        -0.536000000000000
      25     2        -3.468000000000000        -3.252000000000000        -0.878000000000000
      26     2        -4.871000000000001        -0.536000000000000         1.142000000000000
      27     2        -4.285999999999999        -1.733000000000000         2.354000000000000
      28     2        -3.353000000000000        -0.220000000000000         2.059000000000000
      29     2        -2.309000000000000        -3.059000000000000         1.893000000000000
      30     2        -1.425000000000000        -2.847000000000000         0.338000000000000
      31     2        -1.359000000000000        -1.558000000000000         1.594000000000000
      32     2        -2.213000000000000        -1.235000000000000        -1.295000000000000
      33     2        -3.681000000000000        -0.251000000000000        -0.952000000000000
      34     2        -2.153000000000000         0.067000000000000        -0.052000000000000
      35     1         7.592000000000000         1.785000000000000         7.554000000000000
      36     1         6.671000000000000         2.685000000000000         8.310000000000000
      37     1         8.590000000000000         1.205000000000000         8.501000000000000
      38     1         6.794000000000000         0.692000000000000         6.922000000000000
      39     1         8.292000000000000         2.579000000000000         6.500000000000000
      40     2         6.155000000000000         2.100000000000000         9.086000000000000
      41     2         7.258000000000000         3.491000000000000         8.775000000000000
      42     2         5.935000000000000         3.112000000000000         7.612000000000000
      43     2         9.162000000000001         2.023000000000000         8.965000000000000
      44     2         8.058999999999999         0.632000000000000         9.276000000000000
      45     2         9.269000000000000         0.542000000000000         7.944000000000000
      46     2         6.278000000000000         0.124000000000000         7.710000000000000
      47     2         6.058000000000000         1.136000000000000         6.236000000000000
      48     2         7.473000000000000         0.029000000000000         6.366000000000000
      49     2         7.543000000000000         3.008000000000000         5.818000000000000
      50     2         8.865000000000000         3.385000000000000         6.981000000000000
      51     2         8.971000000000000         1.916000000000000         5.943000000000000
      52     1         4.277000000000000        -2.038000000000000         5.029000000000000
      53     1         5.579000000000000        -1.623000000000000         4.425000000000000
      54     1         4.476000000000000        -2.287000000000000         6.488000000000000
      55     1         3.279000000000000        -0.945000000000000         4.829000000000000
      56     1         3.807000000000000        -3.286000000000000         4.357999999999999
      57     2         5.926000000000000        -0.703000000000000         4.918999999999999
      58     2         6.315000000000000        -2.428000000000000         4.571000000000000
      59     2         5.433000000000000        -1.439000000000000         3.350000000000000
      60     2         5.221000000000000        -3.086000000000000         6.617000000000000
      61     2         4.832000000000000        -1.361000000000000         6.964000000000000
      62     2         3.517000000000000        -2.592000000000000         6.932000000000000
      63     2         3.646000000000000        -0.031000000000000         5.320000000000000
      64     2         3.153000000000000        -0.767000000000000         3.751000000000000
      65     2         2.321000000000000        -1.250000000000000         5.274000000000000
      66     2         3.676000000000000        -3.089000000000000         3.284000000000000
      67     2         4.557000000000001        -4.077000000000000         4.505000000000000
      68     2         2.848000000000000        -3.592000000000000         4.803000000000000
      69     1        -4.958000000000000        -2.560000000000000        -5.619000000000000
      70     1        -5.890000000000000        -1.394000000000000        -5.559999999999999
      71     1        -4.886999999999999        -3.056000000000000        -7.025000000000000
      72     1        -3.604000000000000        -2.124000000000000        -5.164000000000000
      73     1        -5.473000000000000        -3.639000000000000        -4.723000000000000
      74     2        -5.511000000000000        -0.600000000000000        -6.220000000000000
      75     2        -6.887000000000000        -1.716000000000000        -5.895000000000000
      76     2        -5.942000000000000        -1.029000000000000        -4.524000000000000
      77     2        -5.893000000000000        -3.364000000000000        -7.348000000000000
      78     2        -4.517000000000001        -2.247000000000000        -7.672000000000000
      79     2        -4.200999999999999        -3.915000000000000        -7.068000000000000
      80     2        -3.245000000000000        -1.323000000000000        -5.827000000000000
      81     2        -3.675000000000000        -1.752000000000000        -4.131000000000000
      82     2        -2.918000000000000        -2.982000000000000        -5.207000000000000
      83     2        -5.529000000000000        -3.255000000000000        -3.694000000000000
      84     2        -6.473000000000000        -3.942000000000000        -5.065000000000001
      85     2        -4.785999999999999        -4.498000000000000        -4.766000000000000
      86     1        -6.543000000000000         7.278000000000000         7.551000000000000
      87     1        -5.967000000000000         8.180000000000000         8.593000000000000
      88     1        -7.387000000000000         6.242000000000000         8.218000000000000
      89     1        -7.378000000000000         8.087999999999999         6.614000000000000
      90     1        -5.428000000000000         6.623000000000000         6.804000000000000
      91     2        -6.788000000000000         8.662000000000001         9.143000000000001
      92     2        -5.352000000000000         7.583000000000000         9.283000000000000
      93     2        -5.345000000000000         8.943000000000000         8.101000000000001
      94     2        -6.760000000000000         5.660999999999999         8.911000000000000
      95     2        -8.196000000000000         6.741000000000000         8.772000000000000
      96     2        -7.811000000000000         5.577000000000000         7.451000000000000
      97     2        -8.187000000000000         8.571000000000000         7.182000000000000
      98     2        -6.745000000000000         8.852000000000000         6.140000000000000
      99     2        -7.802000000000000         7.424000000000000         5.847000000000000
     100     2        -4.811000000000000         7.399000000000000         6.328000000000000
     101     2        -4.817999999999999         6.040000000000000         7.509000000000000
     102     2        -5.853000000000000         5.959000000000000         6.037000000000000
     103     1         7.674000000000000         1.941000000000000         2.528000000000000
     104     1         8.476000000000001         0.762000000000000         2.081000000000000
     105     1         8.602000000000000         3.005000000000000         3.013000000000000
     106     1         6.874000000000000         2.450000000000000         1.374000000000000
     107     1         6.762000000000000         1.518000000000000         3.632000000000000
     108     2         9.147000000000000         1.074000000000000         1.267000000000000
     109     2         9.064000000000000         0.387000000000000         2.931000000000000
     110     2         7.792000000000000        -0.021000000000000         1.723000000000000
     111     2         9.190000000000000         2.610000000000000         3.856000000000000
     112     2         9.273000000000000         3.297000000000000         2.192000000000000
     113     2         8.012000000000000         3.872000000000000         3.342000000000000
     114     2         7.560000000000000         2.747000000000000         0.567000000000000
     115     2         6.204000000000000         1.653000000000000         1.021000000000000
     116     2         6.284000000000000         3.318000000000000         1.703000000000000
     117     2         6.092000000000000         0.727000000000000         3.261000000000000
     118     2         7.365000000000000         1.136000000000000         4.468000000000000
     119     2         6.171000000000000         2.385000000000000         3.961000000000000
     120     1         2.251000000000000         1.537000000000000         7.578000000000000
     121     1         2.780000000000000         2.782000000000000         8.212000000000000
     122     1         2.055000000000000         1.780000000000000         6.118000000000000
     123     1         3.234000000000000         0.432000000000000         7.783000000000000
     124     1         0.947000000000000         1.184000000000000         8.215999999999999
     125     2         3.740000000000000         3.042000000000000         7.742000000000000
     126     2         2.056000000000000         3.596000000000000         8.061000000000000
     127     2         2.925000000000000         2.603000000000000         9.287000000000001
     128     2         1.336000000000000         2.603000000000000         5.985000000000000
     129     2         3.021000000000000         2.049000000000000         5.667000000000000
     130     2         1.665000000000000         0.863000000000000         5.652000000000000
     131     2         4.190000000000001         0.712000000000000         7.317000000000000
     132     2         3.376000000000000         0.273000000000000         8.862000000000000
     133     2         2.845000000000000        -0.485000000000000         7.316000000000000
     134     2         1.107000000000000         1.018000000000000         9.291000000000000
     135     2         0.239000000000000         2.011000000000000         8.065000000000000
     136     2         0.558000000000000         0.267000000000000         7.749000000000000
     137     1         7.383000000000000        -0.909000000000000        -7.578000000000000
     138     1         7.372000000000000        -2.169000000000000        -8.382000000000000
     139     1         6.594000000000000        -1.124000000000000        -6.329000000000000
     140     1         8.795000000000000        -0.563000000000000        -7.237000000000000
     141     1         6.769000000000000         0.187000000000000        -8.385000000000000
     142     2         7.824000000000000        -2.977000000000000        -7.788000000000000
     143     2         6.332000000000000        -2.424000000000000        -8.634000000000000
     144     2         7.953000000000000        -2.010000000000000        -9.303000000000001
     145     2         5.561000000000000        -1.389000000000000        -6.598000000000000
     146     2         7.053000000000000        -1.941000000000000        -5.752000000000000
     147     2         6.602000000000000        -0.197000000000000        -5.737000000000000
     148     2         9.234000000000000        -1.384000000000000        -6.653000000000000
     149     2         9.363000000000000        -0.418000000000000        -8.167000000000000
     150     2         8.802000000000000         0.365000000000000        -6.645000000000000
     151     2         7.355000000000000         0.326000000000000        -9.305999999999999
     152     2         5.735000000000000        -0.088000000000000        -8.637000000000000
     153     2         6.777000000000000         1.115000000000000        -7.794000000000000
     154     1        -1.089000000000000         2.314000000000000        -3.211000000000000
     155     1        -1.491000000000000         1.043000000000000        -2.536000000000000
     156     1        -0.753000000000000         3.332000000000000        -2.172000000000000
     157     1         0.103000000000000         2.051000000000000        -4.071000000000000
     158     1        -2.225000000000000         2.799000000000000        -4.050000000000000
     159     2        -0.654000000000000         0.686000000000000        -1.918000000000000
     160     2        -2.370000000000000         1.237000000000000        -1.903000000000000
     161     2        -1.738000000000000         0.294000000000000        -3.302000000000000
     162     2        -1.638000000000000         3.506000000000000        -1.541000000000000
     163     2         0.078000000000000         2.955000000000000        -1.556000000000000
     164     2        -0.457000000000000         4.267000000000001        -2.669000000000000
     165     2         0.926000000000000         1.686000000000000        -3.440000000000000
     166     2        -0.157000000000000         1.293000000000000        -4.824000000000000
     167     2         0.399000000000000         2.987000000000000        -4.567999999999999
     168     2        -2.467000000000000         2.034000000000000        -4.803000000000000
     169     2        -3.097000000000000         2.977000000000000        -3.404000000000000
     170     2        -1.930000000000000         3.734000000000000        -4.548000000000000
     171     1         7.194000000000000        -7.187000000000000        -7.697000000000000
     172     1         5.941000000000000        -7.070000000000000        -8.501000000000000
     173     1         7.135000000000000        -8.439000000000000        -6.884000000000000
     174     1         8.364000000000001        -7.236000000000000        -8.624000000000000
     175     1         7.307000000000000        -6.001000000000000        -6.797000000000000
     176     2         5.858000000000000        -7.944000000000000        -9.164000000000000
     177     2         5.079000000000000        -7.034000000000000        -7.818000000000000
     178     2         5.984000000000000        -6.148000000000000        -9.099000000000000
     179     2         6.263000000000000        -8.391000000000000        -6.215000000000000
     180     2         7.042000000000000        -9.301000000000000        -7.561000000000000
     181     2         8.058000000000000        -8.525000000000000        -6.292000000000000
     182     2         8.260000000000000        -8.108000000000000        -9.286000000000000
     183     2         8.387000000000000        -6.313000000000000        -9.221000000000000
     184     2         9.287000000000001        -7.322000000000000        -8.032000000000000
     185     2         7.338000000000000        -5.087000000000000        -7.409000000000000
     186     2         6.433000000000000        -5.974000000000000        -6.129000000000000
     187     2         8.228999999999999        -6.087000000000000        -6.204000000000000
     188     1        -0.680000000000000         7.423000000000000         2.673000000000000
     189     1         0.342000000000000         7.176000000000000         1.612000000000000
     190     1        -1.285000000000000         6.119000000000000         3.078000000000000
     191     1        -0.016000000000000         8.063000000000000         3.848000000000000
     192     1        -1.737000000000000         8.327000000000000         2.129000000000000
     193     2         1.120000000000000         6.510000000000000         2.013000000000000
     194     2        -0.147000000000000         6.704000000000000         0.747000000000000
     195     2         0.787000000000000         8.135999999999999         1.314000000000000
     196     2        -1.760000000000000         5.656000000000000         2.200000000000000
     197     2        -0.493000000000000         5.462000000000000         3.466000000000000
     198     2        -2.038000000000000         6.301000000000000         3.860000000000000
     199     2         0.765000000000000         7.389000000000000         4.229000000000000
     200     2         0.432000000000000         9.016000000000000         3.531000000000000
     201     2        -0.769000000000000         8.244999999999999         4.628999999999999
     202     2        -1.274000000000000         9.278000000000000         1.826000000000000
     203     2        -2.208000000000000         7.846000000000000         1.260000000000000
     204     2        -2.490000000000000         8.509000000000000         2.911000000000000
     205     1        -7.542000000000000        -6.119000000000000        -1.615000000000000
     206     1        -6.119000000000000        -5.837000000000000        -1.258000000000000
     207     1        -8.218000000000000        -6.760000000000000        -0.448000000000000
     208     1        -8.222000000000000        -4.833000000000000        -1.954000000000000
     209     1        -7.575000000000000        -7.039000000000000        -2.791000000000000
     210     2        -6.095000000000000        -5.159000000000000        -0.391000000000000
     211     2        -5.618000000000001        -6.784000000000000        -1.008000000000000
     212     2        -5.621000000000001        -5.365000000000000        -2.117000000000000
     213     2        -7.699000000000000        -7.699000000000000        -0.205000000000000
     214     2        -8.176000000000000        -6.075000000000000         0.411000000000000
     215     2        -9.266000000000000        -6.968000000000000        -0.711000000000000
     216     2        -8.180000000000000        -4.165000000000000        -1.082000000000000
     217     2        -7.706000000000000        -4.369000000000000        -2.808000000000000
     218     2        -9.270000000000000        -5.041000000000001        -2.218000000000000
     219     2        -7.064000000000000        -6.556000000000000        -3.638000000000000
     220     2        -7.062000000000000        -7.975000000000000        -2.528000000000000
     221     2        -8.622000000000000        -7.246000000000000        -3.054000000000000
     222     1        -2.514000000000000        -7.711000000000000         7.777000000000000
     223     1        -1.707000000000000        -6.813000000000000         6.897000000000000
     224     1        -1.588000000000000        -8.520000000000000         8.625000000000000
     225     1        -3.399000000000000        -6.876000000000000         8.643000000000001
     226     1        -3.342000000000000        -8.614000000000001         6.923000000000000
     227     2        -1.097000000000000        -6.148000000000000         7.526000000000000
     228     2        -1.056000000000000        -7.428000000000000         6.259000000000000
     229     2        -2.389000000000000        -6.217000000000000         6.272000000000000
     230     2        -0.937000000000000        -9.119999999999999         7.973000000000000
     231     2        -0.979000000000000        -7.840000000000000         9.240000000000000
     232     2        -2.181000000000000        -9.180999999999999         9.273999999999999
     233     2        -2.774000000000000        -6.210000000000000         9.257000000000000
     234     2        -4.066000000000000        -6.279000000000000         8.004000000000000
     235     2        -3.992000000000000        -7.537000000000000         9.292000000000000
     236     2        -4.010000000000000        -8.003000000000000         6.298000000000000
     237     2        -2.676000000000000        -9.212999999999999         6.285000000000000
     238     2        -3.935000000000000        -9.275000000000000         7.572000000000000
     239     1        -7.352000000000000         0.112000000000000        -2.030000000000000
     240     1        -8.819000000000001         0.031000000000000        -1.763000000000000
     241     1        -6.802000000000000        -1.272000000000000        -2.146000000000000
     242     1        -7.130000000000000         0.856000000000000        -3.306000000000000
     243     1        -6.690000000000000         0.830000000000000        -0.900000000000000
     244     2        -9.305999999999999        -0.498000000000000        -2.596000000000000
     245     2        -8.981999999999999        -0.518000000000000        -0.823000000000000
     246     2        -9.224000000000000         1.050000000000000        -1.677000000000000
     247     2        -6.982000000000000        -1.809000000000000        -1.203000000000000
     248     2        -7.306000000000000        -1.790000000000000        -2.976000000000000
     249     2        -5.721000000000000        -1.212000000000000        -2.343000000000000
     250     2        -7.632000000000000         0.321000000000000        -4.125000000000000
     251     2        -7.550000000000000         1.868000000000000        -3.208000000000000
     252     2        -6.050000000000000         0.916000000000000        -3.503000000000000
     253     2        -7.114000000000000         1.842000000000000        -0.821000000000000
     254     2        -6.872000000000000         0.274000000000000         0.032000000000000
     255     2        -5.610000000000000         0.889000000000000        -1.097000000000000
     256     1         7.372000000000000         7.328000000000000         7.470000000000000
     257     1         7.904000000000000         5.936000000000000         7.582000000000000
     258     1         8.270000000000000         8.253000000000000         8.223000000000001
     259     1         7.330000000000000         7.718000000000000         6.030000000000000
     260     1         5.996000000000000         7.370000000000000         8.050000000000001
     261     2         8.917000000000000         5.905000000000000         7.155000000000000
     262     2         7.934000000000000         5.649000000000000         8.643000000000001
     263     2         7.242000000000000         5.255000000000000         7.027000000000000
     264     2         8.297000000000000         7.946000000000000         9.279000000000000
     265     2         9.280000000000000         8.203000000000000         7.791000000000000
     266     2         7.878000000000000         9.278000000000000         8.141000000000000
     267     2         8.348000000000001         7.672000000000000         5.615999999999999
     268     2         6.674000000000000         7.022000000000000         5.488000000000001
     269     2         6.938000000000000         8.743000000000000         5.948000000000000
     270     2         5.349999999999999         6.676000000000000         7.492000000000000
     271     2         6.043000000000000         7.070000000000000         9.106999999999999
     272     2         5.604000000000000         8.395000000000000         7.968000000000000
     273     1         2.557000000000000         5.913000000000000        -2.567000000000000
     274     1         3.665000000000000         5.867000000000000        -3.568000000000000
     275     1         2.455000000000000         4.585000000000000        -1.892000000000000
     276     1         2.856000000000000         6.975000000000000        -1.560000000000000
     277     1         1.278000000000000         6.226000000000000        -3.272000000000000
     278     2         4.607000000000000         5.636999999999999        -3.049000000000000
     279     2         3.444000000000000         5.085000000000000        -4.309999999999999
     280     2         3.740000000000000         6.845000000000000        -4.065000000000001
     281     2         2.245000000000000         3.814000000000000        -2.649000000000000
     282     2         3.408000000000000         4.365999999999999        -1.387000000000000
     283     2         1.639000000000000         4.619000000000000        -1.155000000000000
     284     2         3.805000000000000         6.735000000000000        -1.058000000000000
     285     2         2.938000000000000         7.944000000000000        -2.074000000000000
     286     2         2.040000000000000         7.009000000000000        -0.823000000000000
     287     2         1.373000000000000         7.201000000000000        -3.772000000000000
     288     2         1.078000000000000         5.441000000000000        -4.016000000000000
     289     2         0.462000000000000         6.260000000000000        -2.535000000000000
     290     1         2.376000000000000        -7.203000000000000         0.796000000000000
     291     1         3.495000000000000        -7.087000000000000        -0.187000000000000
     292     1         1.084000000000000        -7.295000000000000         0.052000000000000
     293     1         2.577000000000000        -8.430999999999999         1.620000000000000
     294     1         2.373000000000000        -5.994000000000000         1.674000000000000
     295     2         3.498000000000000        -7.977000000000000        -0.833000000000000
     296     2         3.347000000000000        -6.182000000000000        -0.794000000000000
     297     2         4.447000000000000        -7.019000000000000         0.361000000000000
     298     2         0.956000000000000        -6.388000000000000        -0.558000000000000
     299     2         1.107000000000000        -8.183000000000000        -0.597000000000000
     300     2         0.260000000000000        -7.380000000000000         0.775000000000000
     301     2         2.587000000000000        -9.308999999999999         0.958000000000000
     302     2         3.537000000000000        -8.352000000000000         2.153000000000000
     303     2         1.753000000000000        -8.516000000000000         2.344000000000000
     304     2         3.334000000000000        -5.935000000000000         2.205000000000000
     305     2         2.234000000000000        -5.099000000000000         1.050000000000000
     306     2         1.548000000000000        -6.079000000000000         2.397000000000000
     307     1        -7.252000000000000        -7.302000000000000         4.250000000000000
     308     1        -7.133000000000000        -6.967000000000000         2.799000000000000
     309     1        -5.960000000000000        -6.985000000000000         4.929000000000000
     310     1        -8.353999999999999        -6.491000000000000         4.848000000000000
     311     1        -7.556000000000000        -8.757000000000000         4.390000000000000
     312     2        -6.909000000000000        -5.895000000000000         2.696000000000000
     313     2        -6.321000000000000        -7.565000000000000         2.359000000000000
     314     2        -8.084000000000000        -7.201000000000000         2.299000000000000
     315     2        -5.158000000000001        -7.582000000000000         4.471000000000000