# LAMMPS data file written by OVITO Basic 3.9.2

3880 atoms
4 atom types

0.0 33.591 xlo xhi
0.0 33.591 ylo yhi
0.0 33.591 zlo zhi

Masses

1 1.00794  # H
2 12.0107  # C
3 14.0067  # N
4 15.9994  # O

Atoms  # atomic

1 2 4.38 13.213 39.414
2 1 3.417 13.65 39.694
3 1 5.186 13.885 39.724
4 1 4.294 13.273 38.325
5 2 4.59 11.815 39.934
6 2 3.669 10.735 39.349
7 2 2.243 10.942 39.798
8 2 1.291 9.793 39.499
9 2 1.03 9.556 37.993
10 4 0.072 10.074 37.416
11 3 1.905 8.767 37.334
12 2 1.814 8.41 35.948
13 2 2.653 9.378 35.066
14 2 2.764 8.903 33.587
15 2 3.524 9.975 32.908
16 2 3.914 9.646 31.437
17 2 2.686 9.192 30.533
18 3 3.161 8.593 29.296
19 2 3.379 7.256 29.153
20 4 2.938 6.451 29.944
21 1 5.601 11.503 39.656
22 1 4.507 11.805 41.024
23 1 3.664 10.842 38.26
24 1 4.048 9.748 39.629
25 1 2.279 11.145 40.873
26 1 1.837 11.845 39.334
27 1 0.317 9.868 39.99
28 1 1.771 8.902 39.914
29 1 2.717 8.463 37.871
30 1 2.106 7.359 35.86
31 1 0.75 8.458 35.701
32 1 2.1 10.318 35.147
33 1 3.639 9.502 35.525
34 1 1.77 8.884 33.13
35 1 3.325 7.969 33.498
36 1 4.41 10.303 33.459
37 1 2.907 10.877 32.856
38 1 4.701 8.887 31.398
39 1 4.325 10.558 30.996
40 1 2.023 8.519 31.084
41 1 2.209 10.141 30.271
42 1 3.693 9.138 28.617
43 2 4.354 6.701 28.097
44 2 3.644 6.222 26.864
45 2 4.595 6.177 25.663
46 2 3.796 5.65 24.481
47 2 2.811 6.649 23.924
48 4 2.805 7.873 24.335
49 3 1.91 6.212 22.919
50 2 0.741 6.983 22.605
51 2 -0.577 6.135 22.494
52 2 -1.694 6.885 21.658
53 2 -2.786 5.83 21.443
54 2 -4.14 6.294 20.943
55 2 -3.996 6.927 19.573
56 3 -3.487 6.007 18.584
57 2 -3.307 6.437 17.28
58 4 -3.442 7.64 17.046
59 1 5.01 7.503 27.745
60 1 4.993 5.901 28.484
61 1 3.166 5.262 27.077
62 1 2.877 6.971 26.644
63 1 5.043 7.132 25.373
64 1 5.396 5.45 25.828
65 1 3.262 4.777 24.867
66 1 4.427 5.41 23.621
67 1 2.148 5.339 22.448
68 1 0.568 7.751 23.365
69 1 0.825 7.481 21.634
70 1 -0.282 5.225 21.963
71 1 -0.928 5.823 23.482
72 1 -1.32 7.193 20.677
73 1 -2.092 7.753 22.191
74 1 -2.927 5.245 22.357
75 1 -2.436 5.059 20.751
76 1 -4.644 6.957 21.651
77 1 -4.815 5.436 20.881
78 1 -4.939 7.405 19.293
79 1 -3.266 7.739 19.638
80 1 -3.343 5.051 18.908
81 2 -2.779 5.493 16.209
82 2 -1.334 5.665 15.916
83 2 -0.746 4.417 15.025
84 2 0.766 4.678 14.711
85 2 1.275 3.607 13.763
86 4 0.913 2.433 13.88
87 3 2.201 3.93 12.749
88 2 2.919 2.964 11.848
89 2 3.48 3.73 10.53
90 2 2.393 4.679 9.874
91 2 2.999 5.189 8.481
92 2 2.537 6.505 7.999
93 2 1.019 6.477 7.766
94 3 0.647 5.896 6.426
95 2 -0.477 6.302 5.66
96 4 -1.145 7.228 6.041
97 1 -2.988 4.455 16.485
98 1 -3.343 5.569 15.275
99 1 -1.249 6.649 15.447
100 1 -0.922 5.614 16.928
101 1 -0.868 3.522 15.643
102 1 -1.291 4.248 14.092
103 1 1.373 4.678 15.622
104 1 0.749 5.634 14.18
105 1 2.443 4.912 12.619
106 1 3.795 2.536 12.344
107 1 2.285 2.117 11.569
108 1 4.318 4.352 10.856
109 1 3.812 2.915 9.88
110 1 2.234 5.516 10.561
111 1 1.421 4.259 9.599
112 1 2.862 4.514 7.632
113 1 4.067 5.319 8.678
114 1 3.062 6.704 7.06
115 1 2.823 7.335 8.652
116 1 0.509 5.777 8.434
117 1 0.612 7.473 7.965
118 1 1.083 5.0 6.214
119 2 -0.652 5.734 4.186
120 2 -2.171 5.644 3.697
121 2 -2.968 4.824 4.621
122 2 -4.465 4.83 4.215
123 2 -5.237 3.783 5.026
124 4 -6.248 4.187 5.608
125 3 -4.987 2.429 4.986
126 2 -5.499 1.467 5.981
127 2 -4.46 1.45 7.137
128 2 -3.198 0.669 6.837
129 2 -2.431 0.529 8.105
130 2 -1.194 -0.437 7.963
131 2 -0.115 -0.278 9.16
132 3 0.935 -1.249 8.883
133 2 1.829 -1.645 9.923
134 4 1.589 -1.359 11.078
135 1 -0.023 6.297 3.49
136 1 -0.205 4.738 4.242
137 1 -2.487 6.688 3.785
138 1 -2.334 5.284 2.677
139 1 -2.724 3.758 4.582
140 1 -2.971 5.221 5.641
141 1 -4.633 4.529 3.177
142 1 -4.901 5.808 4.438
143 1 -4.205 2.126 4.406
144 1 -6.501 1.798 6.267
145 1 -5.63 0.422 5.685
146 1 -4.202 2.483 7.389
147 1 -4.944 0.975 7.996
148 1 -2.666 1.201 6.042
149 1 -3.453 -0.277 6.351
150 1 -3.079 0.185 8.916
151 1 -2.033 1.516 8.361
152 1 -0.734 -0.253 6.988
153 1 -1.699 -1.405 8.023
154 1 0.369 0.703 9.162
155 1 -0.652 -0.5 10.087
156 1 1.352 -1.174 7.955
157 2 3.237 -2.296 9.771
158 2 3.772 -2.104 8.293
159 2 4.212 -0.714 7.977
160 2 4.576 -0.453 6.484
161 2 3.405 -0.296 5.57
162 4 2.78 0.753 5.661
163 3 3.051 -1.328 4.736
164 2 1.795 -1.195 3.948
165 2 0.959 -2.5 3.91
166 2 -0.319 -2.41 3.112
167 2 -0.876 -3.837 2.867
168 2 -2.301 -3.691 2.372
169 2 -2.889 -5.081 2.091
170 3 -2.072 -5.733 1.056
171 2 -2.444 -6.985 0.613
172 4 -3.536 -7.45 0.917
173 1 3.963 -1.772 10.399
174 1 3.24 -3.324 10.147
175 1 4.623 -2.789 8.229
176 1 3.068 -2.471 7.54
177 1 3.418 -0.005 8.232
178 1 5.035 -0.416 8.634
179 1 5.202 -1.301 6.193
180 1 5.243 0.409 6.389
181 1 3.619 -2.17 4.643
182 1 1.092 -0.414 4.251
183 1 2.138 -1.049 2.92
184 1 1.525 -3.385 3.602
185 1 0.567 -2.784 4.891
186 1 -0.102 -1.88 2.18
187 1 -1.048 -1.784 3.636
188 1 -0.85 -4.46 3.766
189 1 -0.235 -4.267 2.092
190 1 -2.386 -3.091 1.461
191 1 -2.843 -3.131 3.14
192 1 -2.812 -5.701 2.989
193 1 -3.914 -4.964 1.728
194 1 -1.21 -5.251 0.802
195 2 -1.663 -7.736 -0.515
196 2 -0.233 -8.001 -0.098
197 2 0.501 -8.642 -1.212
198 2 1.804 -9.196 -0.602
199 2 2.706 -9.778 -1.73
200 4 2.416 -9.329 -2.868
201 3 3.9 -10.345 -1.425
202 2 5.001 -10.457 -2.402
203 2 6.366 -10.163 -1.789
204 2 6.603 -8.75 -1.125
205 2 8.037 -8.438 -0.679
206 2 8.285 -6.998 -0.273
207 2 7.738 -6.589 1.024
208 3 8.099 -7.45 2.171
209 2 7.258 -7.412 3.28
210 4 6.516 -6.54 3.563
211 1 -2.177 -8.668 -0.768
212 1 -1.603 -7.135 -1.428
213 1 0.24 -7.063 0.206
214 1 -0.238 -8.73 0.717
215 1 -0.078 -9.517 -1.52
216 1 0.623 -7.939 -2.041
217 1 1.622 -10.021 0.094
218 1 2.287 -8.314 -0.172
219 1 4.004 -10.433 -0.415
220 1 5.084 -11.432 -2.89
221 1 4.877 -9.812 -3.278
222 1 6.678 -10.888 -1.032
223 1 7.042 -10.365 -2.626
224 1 5.977 -8.616 -0.238
225 1 6.279 -7.977 -1.828
226 1 8.681 -8.637 -1.541
227 1 8.318 -9.116 0.132
228 1 7.911 -6.349 -1.071
229 1 9.377 -6.931 -0.265
230 1 8.061 -5.562 1.217
231 1 6.649 -6.514 0.956
232 1 8.77 -8.211 2.07
233 2 7.275 -8.556 4.305
234 2 6.213 -9.622 4.01
235 2 6.589 -10.497 2.741
236 2 5.613 -11.606 2.539
237 2 4.173 -11.137 2.367
238 4 4.043 -10.185 1.677
239 3 3.145 -11.829 2.963
240 2 1.775 -11.468 2.926
241 2 1.06 -12.33 1.851
242 2 -0.399 -11.963 1.498
243 2 -0.887 -12.738 0.287
244 2 -2.408 -12.778 0.364
245 2 -3.012 -11.37 0.367
246 3 -4.465 -11.492 0.237
247 2 -5.234 -11.23 -0.829
248 4 -4.668 -10.892 -1.837
249 1 8.255 -9.038 4.374
250 1 7.027 -8.079 5.258
251 1 6.122 -10.335 4.834
252 1 5.258 -9.098 3.908
253 1 6.659 -9.947 1.799
254 1 7.585 -10.932 2.861
255 1 5.691 -12.336 3.35
256 1 5.988 -12.113 1.645
257 1 3.342 -12.672 3.501
258 1 1.2 -11.612 3.845
259 1 1.671 -10.425 2.612
260 1 1.65 -12.222 0.936
261 1 1.05 -13.34 2.269
262 1 -0.523 -10.887 1.35
263 1 -0.965 -12.086 2.426
264 1 -0.545 -13.77 0.168
265 1 -0.611 -12.266 -0.661
266 1 -2.651 -13.412 1.222
267 1 -2.733 -13.295 -0.544
268 1 -2.763 -10.722 1.212
269 1 -2.534 -10.809 -0.442
270 1 -4.888 -11.926 1.056
271 2 -6.757 -11.4 -0.858
272 2 -7.441 -10.157 -0.227
273 2 -8.979 -10.357 -0.143
274 2 -9.733 -9.161 0.463
275 2 -9.869 -7.954 -0.536
276 4 -9.331 -6.925 -0.24
277 3 -10.614 -8.005 -1.691
278 2 -10.946 -6.886 -2.494
279 2 -9.704 -6.16 -3.086
280 2 -10.186 -5.245 -4.177
281 2 -9.039 -4.472 -4.875
282 2 -8.671 -3.265 -3.99
283 2 -7.535 -2.428 -4.664
284 3 -6.361 -3.266 -4.822
285 2 -5.888 -3.785 -6.0
286 4 -6.538 -3.524 -6.956
287 1 -7.115 -11.538 -1.883
288 1 -6.917 -12.341 -0.324
289 1 -6.936 -9.963 0.724
290 1 -7.179 -9.31 -0.869
291 1 -9.371 -10.452 -1.16
292 1 -9.27 -11.18 0.516
293 1 -9.221 -8.833 1.372
294 1 -10.738 -9.519 0.704
295 1 -11.155 -8.865 -1.777
296 1 -11.538 -7.184 -3.365
297 1 -11.504 -6.141 -1.919
298 1 -9.121 -5.522 -2.415
299 1 -8.963 -6.856 -3.489
300 1 -10.979 -4.562 -3.858
301 1 -10.576 -5.852 -5.0
302 1 -9.389 -4.006 -5.8
303 1 -8.229 -5.197 -4.993
304 1 -8.344 -3.628 -3.011
305 1 -9.564 -2.659 -3.81
306 1 -7.886 -1.985 -5.601
307 1 -7.373 -1.545 -4.039
308 1 -5.866 -3.61 -3.999
309 2 -4.544 -4.478 -5.981
310 2 -4.111 -4.975 -7.373
311 2 -3.443 -3.803 -8.12
312 2 -3.263 -4.255 -9.516
313 2 -2.802 -3.121 -10.382
314 4 -3.583 -2.296 -10.858
315 3 -1.541 -3.008 -10.829
316 2 -1.017 -1.989 -11.633
317 2 -0.214 -2.492 -12.828
318 2 -1.02 -2.32 -14.184
319 2 -2.135 -3.375 -14.372
320 2 -1.709 -4.866 -14.627
321 2 -1.738 -5.815 -13.439
322 3 -3.102 -6.004 -13.053
323 2 -3.854 -7.204 -13.018
324 4 -3.24 -8.248 -13.211
325 1 -3.791 -3.742 -5.683
326 1 -4.608 -5.289 -5.25
327 1 -3.363 -5.77 -7.309
328 1 -4.887 -5.417 -8.005
329 1 -4.046 -2.893 -8.045
330 1 -2.471 -3.515 -7.71
331 1 -4.154 -4.748 -9.917
332 1 -2.436 -4.966 -9.442
333 1 -0.946 -3.792 -10.564
334 1 -1.732 -1.317 -12.116
335 1 -0.294 -1.424 -11.038
336 1 0.597 -1.762 -12.904
337 1 0.296 -3.443 -12.648
338 1 -0.365 -2.431 -15.053
339 1 -1.404 -1.3 -14.269
340 1 -2.589 -3.146 -15.34
341 1 -2.856 -3.241 -13.561
342 1 -0.662 -4.887 -14.942
343 1 -2.274 -5.278 -15.468
344 1 -1.233 -6.745 -13.715
345 1 -1.159 -5.38 -12.619
346 1 -3.538 -5.209 -12.589
347 2 -5.317 -7.141 -12.538
348 2 -6.256 -8.309 -12.988
349 2 -7.592 -8.321 -12.202
350 2 -8.466 -9.525 -12.558
351 2 -9.882 -9.528 -11.958
352 4 -10.629 -8.617 -12.247
353 3 -10.158 -10.426 -10.924
354 2 -11.339 -10.307 -10.1
355 2 -11.374 -9.043 -9.185
356 2 -10.297 -8.959 -8.176
357 2 -10.245 -7.628 -7.348
358 2 -10.144 -6.324 -8.323
359 2 -8.844 -6.275 -9.21
360 3 -8.265 -4.953 -9.253
361 2 -7.732 -4.434 -10.406
362 4 -7.822 -5.0 -11.519
363 1 -5.346 -6.944 -11.462
364 1 -5.742 -6.255 -13.018
365 1 -6.444 -8.257 -14.065
366 1 -5.696 -9.24 -12.857
367 1 -7.334 -8.289 -11.139
368 1 -8.138 -7.389 -12.374
369 1 -8.041 -10.493 -12.278
370 1 -8.604 -9.507 -13.643
371 1 -9.432 -11.085 -10.647
372 1 -12.103 -10.316 -10.883
373 1 -11.533 -11.221 -9.531
374 1 -11.394 -8.115 -9.763
375 1 -12.35 -9.022 -8.69
376 1 -9.342 -9.164 -8.67
377 1 -10.35 -9.796 -7.473
378 1 -9.39 -7.722 -6.671
379 1 -11.14 -7.44 -6.747
380 1 -10.036 -5.46 -7.661
381 1 -11.054 -6.189 -8.915
382 1 -8.07 -6.966 -8.864
383 1 -9.057 -6.654 -10.214
384 1 -8.08 -4.471 -8.374
385 2 -7.257 -2.995 -10.466
386 1 -6.842 -2.609 -11.402
387 1 -8.119 -2.377 -10.201
388 1 -6.476 -2.79 -9.728
389 2 3.597 -32.29 -15.9
390 1 4.331 -32.23 -15.09
391 1 4.018 -31.663 -16.691
392 1 2.71 -31.782 -15.51
393 2 3.272 -33.707 -16.405
394 2 2.135 -33.609 -17.428
395 2 1.82 -34.929 -18.125
396 2 0.582 -34.856 -19.045
397 2 -0.768 -34.65 -18.351
398 4 -1.154 -35.399 -17.446
399 3 -1.501 -33.637 -18.945
400 2 -2.729 -33.066 -18.324
401 2 -3.257 -31.789 -19.049
402 2 -3.783 -32.072 -20.492
403 2 -2.682 -31.749 -21.574
404 2 -2.735 -30.199 -21.895
405 2 -1.743 -29.711 -22.937
406 3 -2.103 -28.36 -23.283
407 2 -1.618 -27.261 -22.585
408 4 -0.653 -27.399 -21.796
409 1 4.136 -34.21 -16.85
410 1 3.038 -34.363 -15.562
411 1 1.246 -33.235 -16.913
412 1 2.402 -32.841 -18.16
413 1 2.611 -35.345 -18.756
414 1 1.696 -35.672 -17.332
415 1 0.544 -35.794 -19.607
416 1 0.759 -34.07 -19.785
417 1 -0.975 -33.152 -19.672
418 1 -3.48 -33.86 -18.383
419 1 -2.446 -32.79 -17.304
420 1 -4.056 -31.351 -18.444
421 1 -2.44 -31.062 -19.057
422 1 -4.681 -31.468 -20.65
423 1 -4.149 -33.1 -20.553
424 1 -2.905 -32.318 -22.482
425 1 -1.696 -32.056 -21.214
426 1 -2.616 -29.68 -20.939
427 1 -3.698 -29.961 -22.356
428 1 -0.732 -29.821 -22.534
429 1 -1.945 -30.328 -23.818
430 1 -2.913 -28.205 -23.882
431 2 -2.211 -25.867 -22.895
432 2 -2.649 -25.034 -21.683
433 2 -3.598 -25.798 -20.704
434 2 -5.072 -26.071 -21.236
435 2 -5.964 -26.833 -20.217
436 4 -6.198 -28.056 -20.142
437 3 -6.203 -26.109 -19.032
438 2 -6.678 -26.737 -17.734
439 2 -7.446 -25.649 -16.97
440 2 -7.921 -26.183 -15.576
441 2 -8.566 -25.081 -14.733
442 2 -8.715 -25.606 -13.325
443 2 -9.016 -24.444 -12.381
444 3 -8.992 -24.905 -11.047
445 2 -7.771 -24.988 -10.342
446 4 -6.673 -24.763 -10.837
447 1 -1.426 -25.298 -23.402
448 1 -2.958 -25.926 -23.692
449 1 -1.758 -24.716 -21.134
450 1 -3.241 -24.172 -22.004
451 1 -3.091 -26.704 -20.361
452 1 -3.79 -25.152 -19.843
453 1 -4.992 -26.575 -22.204
454 1 -5.598 -25.123 -21.373
455 1 -6.055 -25.101 -19.043
456 1 -7.437 -27.511 -17.882
457 1 -5.874 -27.183 -17.142
458 1 -6.741 -24.817 -16.879
459 1 -8.364 -25.298 -17.449
460 1 -6.998 -26.515 -15.092
461 1 -8.6 -27.036 -15.673
462 1 -9.537 -24.695 -15.057
463 1 -7.87 -24.238 -14.697
464 1 -7.733 -25.987 -13.03
465 1 -9.516 -26.351 -13.316
466 1 -8.399 -23.551 -12.52
467 1 -10.048 -24.106 -12.506
468 1 -9.849 -25.113 -10.536
469 2 -7.626 -25.013 -8.854
470 2 -8.46 -26.133 -8.247
471 2 -8.391 -26.074 -6.727
472 2 -9.266 -27.17 -5.992
473 2 -9.124 -27.198 -4.488
474 4 -9.01 -26.138 -3.872
475 3 -9.031 -28.511 -3.965
476 2 -8.864 -28.764 -2.529
477 2 -7.459 -28.726 -2.077
478 2 -7.345 -29.34 -0.666
479 2 -5.877 -29.411 -0.06
480 2 -5.049 -28.151 -0.116
481 2 -5.556 -27.119 0.894
482 3 -4.585 -25.954 0.888
483 2 -4.648 -24.913 1.79
484 4 -5.374 -24.951 2.791
485 1 -6.601 -25.153 -8.497
486 1 -7.943 -24.04 -8.467
487 1 -9.512 -25.888 -8.423
488 1 -8.221 -27.121 -8.65
489 1 -7.339 -26.199 -6.454
490 1 -8.6 -25.114 -6.247
491 1 -9.095 -28.133 -6.483
492 1 -10.284 -26.851 -6.232
493 1 -8.743 -29.227 -4.631
494 1 -9.445 -28.069 -1.916
495 1 -9.289 -29.768 -2.449
496 1 -6.933 -29.368 -2.788
497 1 -7.021 -27.725 -2.126
498 1 -7.937 -30.246 -0.504
499 1 -7.879 -28.611 -0.049
500 1 -5.319 -30.199 -0.574
501 1 -6.067 -29.693 0.98
502 1 -5.019 -27.8 -1.152
503 1 -4.057 -28.492 0.195
504 1 -6.554 -26.759 0.626
505 1 -5.503 -27.681 1.831
506 1 -3.749 -26.037 0.311
507 2 -3.619 -23.746 1.788
508 2 -2.789 -23.609 0.544
509 2 -3.554 -22.809 -0.56
510 2 -2.559 -22.519 -1.681
511 2 -2.991 -21.42 -2.659
512 4 -2.88 -20.254 -2.445
513 3 -3.541 -21.898 -3.901
514 2 -3.715 -21.006 -5.032
515 2 -4.226 -21.67 -6.272
516 2 -4.524 -20.711 -7.448
517 2 -5.156 -21.559 -8.607
518 2 -6.0 -20.707 -9.604
519 2 -7.444 -20.462 -9.136
520 3 -7.705 -19.743 -7.853
521 2 -8.62 -18.707 -7.782
522 4 -9.33 -18.358 -8.758
523 1 -4.147 -22.799 1.931
524 1 -2.961 -24.021 2.618
525 1 -1.861 -23.096 0.815
526 1 -2.525 -24.608 0.184
527 1 -4.432 -23.371 -0.89
528 1 -3.966 -21.877 -0.161
529 1 -2.309 -23.498 -2.102
530 1 -1.638 -22.186 -1.195
531 1 -3.359 -22.889 -4.055
532 1 -4.353 -20.168 -4.735
533 1 -2.762 -20.537 -5.293
534 1 -3.497 -22.402 -6.632
535 1 -5.169 -22.193 -6.084
536 1 -3.645 -20.198 -7.849
537 1 -5.218 -19.931 -7.121
538 1 -5.772 -22.384 -8.237
539 1 -4.364 -22.013 -9.21
540 1 -6.146 -21.281 -10.524
541 1 -5.572 -19.703 -9.68
542 1 -8.104 -20.154 -9.952
543 1 -7.741 -21.482 -8.871
544 1 -7.229 -20.08 -7.016
545 2 -8.871 -18.026 -6.433
546 2 -8.067 -16.771 -6.356
547 2 -8.676 -15.853 -5.236
548 2 -8.832 -16.552 -3.819
549 2 -9.5 -15.644 -2.752
550 4 -9.842 -14.499 -2.996
551 3 -9.493 -16.168 -1.458
552 2 -9.872 -15.568 -0.193
553 2 -9.209 -16.285 0.976
554 2 -9.523 -15.672 2.403
555 2 -10.949 -15.685 2.821
556 2 -11.163 -15.068 4.203
557 2 -12.629 -15.086 4.609
558 3 -13.08 -13.977 5.439
559 2 -14.318 -13.414 5.411
560 4 -15.178 -13.869 4.698
561 1 -9.922 -17.736 -6.346
562 1 -8.64 -18.75 -5.647
563 1 -7.035 -17.07 -6.149
564 1 -8.069 -16.175 -7.272
565 1 -8.175 -14.883 -5.161
566 1 -9.704 -15.57 -5.482
567 1 -7.813 -16.769 -3.484
568 1 -9.425 -17.471 -3.833
569 1 -9.221 -17.134 -1.28
570 1 -9.57 -14.516 -0.207
571 1 -10.953 -15.547 -0.03
572 1 -9.549 -17.325 0.983
573 1 -8.12 -16.315 0.885
574 1 -9.081 -14.672 2.37
575 1 -8.975 -16.246 3.156
576 1 -11.202 -16.749 2.863
577 1 -11.547 -15.123 2.098
578 1 -10.766 -14.05 4.247
579 1 -10.645 -15.615 4.996
580 1 -13.344 -15.082 3.782
581 1 -12.792 -16.045 5.109
582 1 -12.374 -13.591 6.065
583 2 -14.616 -12.219 6.272
584 2 -14.596 -12.692 7.739
585 2 -15.13 -11.456 8.572
586 2 -14.772 -11.571 10.006
587 2 -15.59 -12.553 10.823
588 4 -16.405 -12.201 11.617
589 3 -15.175 -13.892 10.691
590 2 -15.934 -15.0 11.34
591 2 -15.676 -16.183 10.379
592 2 -14.244 -16.738 10.227
593 2 -14.216 -17.956 9.297
594 2 -12.776 -18.452 8.982
595 2 -12.228 -18.007 7.62
596 3 -10.839 -18.426 7.319
597 2 -10.467 -18.708 5.997
598 4 -11.168 -18.468 5.013
599 1 -13.875 -11.429 6.117
600 1 -15.613 -11.908 5.945
601 1 -15.247 -13.546 7.947
602 1 -13.61 -12.991 8.106
603 1 -14.836 -10.487 8.158
604 1 -16.222 -11.501 8.523
605 1 -14.871 -10.602 10.503
606 1 -13.727 -11.86 10.157
607 1 -14.454 -14.211 10.044
608 1 -15.641 -15.144 12.384
609 1 -17.019 -14.861 11.358
610 1 -16.289 -17.004 10.763
611 1 -15.986 -15.932 9.361
612 1 -13.842 -17.064 11.19
613 1 -13.664 -15.888 9.856
614 1 -14.698 -17.704 8.348
615 1 -14.754 -18.8 9.738
616 1 -12.785 -19.541 8.88
617 1 -12.073 -18.182 9.776
618 1 -12.918 -18.457 6.9
619 1 -12.208 -16.917 7.528
620 1 -10.229 -18.669 8.099
621 2 -9.253 -19.527 5.689
622 2 -7.932 -18.721 5.489
623 2 -7.81 -17.603 6.568
624 2 -6.448 -16.873 6.602
625 2 -6.468 -15.868 7.747
626 4 -7.179 -15.963 8.776
627 3 -5.575 -14.765 7.693
628 2 -5.518 -13.839 8.775
629 2 -5.528 -12.392 8.341
630 2 -5.49 -11.436 9.552
631 2 -5.917 -10.066 8.961
632 2 -5.892 -8.955 10.059
633 2 -6.281 -7.669 9.389
634 3 -6.196 -6.556 10.404
635 2 -7.318 -5.836 10.7
636 4 -8.292 -5.776 9.968
637 1 -9.077 -20.355 6.383
638 1 -9.46 -20.055 4.754
639 1 -7.103 -19.432 5.558
640 1 -7.954 -18.221 4.517
641 1 -8.575 -16.84 6.399
642 1 -8.077 -18.059 7.526
643 1 -6.288 -16.235 5.728
644 1 -5.624 -17.554 6.838
645 1 -4.801 -14.767 7.029
646 1 -6.37 -13.992 9.444
647 1 -4.561 -14.044 9.265
648 1 -4.563 -12.294 7.835
649 1 -6.392 -12.26 7.683
650 1 -4.477 -11.379 9.961
651 1 -6.149 -11.75 10.366
652 1 -6.961 -10.088 8.634
653 1 -5.338 -9.723 8.099
654 1 -4.895 -8.901 10.505
655 1 -6.491 -9.227 10.933
656 1 -5.482 -7.454 8.673
657 1 -7.25 -7.765 8.89
658 1 -5.516 -6.682 11.152
659 2 -7.331 -5.031 11.992
660 2 -8.372 -5.478 13.0
661 2 -7.853 -6.747 13.809
662 2 -8.994 -7.405 14.614
663 2 -8.566 -8.496 15.664
664 4 -7.415 -8.821 15.825
665 3 -9.561 -9.126 16.373
666 2 -9.267 -10.328 17.205
667 2 -10.617 -10.653 17.911
668 2 -10.586 -12.018 18.65
669 2 -11.788 -12.1 19.691
670 2 -11.485 -13.235 20.617
671 2 -12.592 -13.424 21.652
672 3 -13.852 -13.827 21.019
673 2 -14.961 -14.247 21.824
674 4 -14.772 -14.447 23.034
675 1 -6.332 -5.024 12.439
676 1 -7.668 -4.026 11.72
677 1 -8.541 -4.637 13.677
678 1 -9.334 -5.785 12.58
679 1 -7.634 -7.477 13.024
680 1 -6.995 -6.505 14.444
681 1 -9.712 -7.87 13.932
682 1 -9.582 -6.619 15.095
683 1 -10.537 -9.054 16.09
684 1 -8.989 -11.244 16.675
685 1 -8.437 -10.14 17.892
686 1 -10.815 -9.85 18.628
687 1 -11.468 -10.622 17.225
688 1 -9.613 -12.106 19.14
689 1 -10.714 -12.795 17.89
690 1 -12.706 -12.25 19.117
691 1 -11.916 -11.159 20.234
692 1 -10.542 -13.057 21.142
693 1 -11.34 -14.206 20.135
694 1 -12.213 -14.176 22.351
695 1 -12.714 -12.492 22.212
696 1 -14.039 -13.615 20.04
697 2 -16.356 -14.162 21.17
698 2 -17.275 -13.107 21.747
699 2 -16.724 -11.662 21.704
700 2 -16.419 -11.194 20.179
701 2 -15.996 -9.716 19.975
702 4 -16.59 -8.845 20.517
703 3 -14.892 -9.556 19.108
704 2 -14.221 -8.285 18.782
705 2 -13.602 -7.801 20.087
706 2 -12.85 -6.488 19.935
707 2 -12.512 -5.894 21.34
708 2 -11.487 -4.761 21.458
709 2 -11.921 -3.499 20.726
710 3 -10.968 -2.457 20.819
711 2 -10.682 -1.611 19.766
712 4 -11.319 -1.589 18.734
713 1 -16.213 -13.866 20.126
714 1 -16.85 -15.134 21.084
715 1 -18.196 -13.113 21.156
716 1 -17.53 -13.34 22.785
717 1 -17.488 -10.995 22.116
718 1 -15.863 -11.563 22.371
719 1 -17.254 -11.378 19.497
720 1 -15.623 -11.826 19.775
721 1 -14.406 -10.44 18.96
722 1 -13.437 -8.418 18.031
723 1 -14.959 -7.595 18.363
724 1 -14.411 -7.729 20.82
725 1 -12.923 -8.555 20.496
726 1 -13.456 -5.809 19.328
727 1 -11.878 -6.585 19.444
728 1 -12.094 -6.66 22.001
729 1 -13.446 -5.483 21.735
730 1 -10.523 -5.005 21.001
731 1 -11.294 -4.692 22.533
732 1 -12.16 -3.706 19.68
733 1 -12.901 -3.23 21.131
734 1 -10.401 -2.435 21.665
735 2 -9.509 -0.597 19.987
736 2 -10.122 0.849 20.246
737 2 -9.0 1.835 20.416
738 2 -8.348 1.728 21.783
739 2 -7.468 2.912 22.117
740 4 -7.696 3.963 21.607
741 3 -6.483 2.777 23.047
742 2 -5.487 3.806 23.36
743 2 -5.583 4.111 24.88
744 2 -4.507 5.074 25.175
745 2 -4.636 5.772 26.455
746 2 -4.879 4.812 27.66
747 2 -4.579 5.489 28.995
748 3 -5.389 6.68 29.126
749 2 -5.222 7.639 30.121
750 4 -4.231 7.534 30.904
751 1 -8.778 -0.887 20.748
752 1 -8.889 -0.604 19.086
753 1 -10.746 1.172 19.408
754 1 -10.717 0.847 21.164
755 1 -8.246 1.726 19.631
756 1 -9.403 2.848 20.329
757 1 -7.859 0.752 21.853
758 1 -9.133 1.787 22.542
759 1 -6.463 1.817 23.39
760 1 -4.516 3.453 23.0
761 1 -5.769 4.78 22.949
762 1 -6.577 4.493 25.132
763 1 -5.381 3.18 25.418
764 1 -4.546 5.858 24.413
765 1 -3.528 4.588 25.127
766 1 -5.503 6.437 26.423
767 1 -3.715 6.333 26.643
768 1 -4.26 3.91 27.663
769 1 -5.929 4.52 27.564
770 1 -4.837 4.742 29.751
771 1 -3.54 5.813 29.113
772 1 -6.177 6.79 28.489
773 2 -6.143 8.802 30.355
774 1 -6.673 9.026 29.424
775 1 -6.801 8.629 31.211
776 1 -5.613 9.697 30.695
777 2 -7.02 15.076 20.115
778 1 -7.059 15.826 19.32
779 1 -6.574 15.536 21.002
780 1 -6.28 14.32 19.837
781 2 -8.384 14.387 20.429
782 2 -9.075 13.747 19.207
783 2 -10.365 13.006 19.603
784 2 -10.992 12.394 18.292
785 2 -12.275 11.703 18.386
786 4 -13.226 12.15 17.777
787 3 -12.495 10.789 19.431
788 2 -13.858 10.436 19.905
789 2 -14.226 9.07 19.335
790 2 -15.661 8.607 19.573
791 2 -16.016 7.286 18.77
792 2 -17.444 6.891 19.083
793 2 -17.79 5.537 18.422
794 3 -17.806 5.422 16.884
795 2 -17.34 4.37 16.137
796 4 -16.621 3.574 16.638
797 1 -8.227 13.625 21.199
798 1 -9.065 15.168 20.78
799 1 -9.158 14.389 18.325
800 1 -8.384 12.938 18.954
801 1 -10.1 12.195 20.288
802 1 -11.006 13.761 20.068
803 1 -10.267 11.677 17.896
804 1 -11.109 13.128 17.489
805 1 -11.724 10.343 19.925
806 1 -13.829 10.355 20.995
807 1 -14.561 11.219 19.604
808 1 -13.96 9.101 18.275
809 1 -13.651 8.25 19.777
810 1 -16.364 9.367 19.219
811 1 -15.819 8.448 20.644
812 1 -15.316 6.467 18.96
813 1 -15.839 7.585 17.733
814 1 -18.236 7.586 18.792
815 1 -17.602 6.831 20.164
816 1 -17.005 4.812 18.653
817 1 -18.697 5.083 18.831
818 1 -18.48 6.042 16.436
819 2 -17.897 4.167 14.698
820 2 -17.45 2.873 14.002
821 2 -18.178 2.671 12.665
822 2 -17.839 3.681 11.528
823 2 -16.374 4.056 11.33
824 4 -15.873 5.082 11.962
825 3 -15.475 3.2 10.656
826 2 -14.026 3.386 10.696
827 2 -13.339 2.737 9.456
828 2 -11.849 2.592 9.674
829 2 -11.278 2.04 8.434
830 2 -9.875 1.375 8.672
831 2 -9.458 0.247 7.77
832 3 -8.892 0.812 6.541
833 2 -8.485 0.055 5.486
834 4 -8.439 -1.182 5.581
835 1 -18.973 4.36 14.673
836 1 -17.548 5.048 14.152
837 1 -16.38 2.883 13.772
838 1 -17.567 2.016 14.672
839 1 -17.811 1.733 12.237
840 1 -19.263 2.677 12.802
841 1 -18.367 4.617 11.734
842 1 -18.256 3.213 10.631
843 1 -15.797 2.237 10.748
844 1 -13.871 4.469 10.683
845 1 -13.636 3.062 11.665
846 1 -13.832 1.778 9.268
847 1 -13.593 3.34 8.58
848 1 -11.686 2.022 10.593
849 1 -11.395 3.558 9.915
850 1 -11.068 2.845 7.723
851 1 -11.993 1.309 8.045
852 1 -9.898 0.932 9.673
853 1 -9.166 2.208 8.678
854 1 -8.754 -0.46 8.217
855 1 -10.324 -0.323 7.421
856 1 -8.768 1.822 6.474
857 2 -8.149 0.79 4.175
858 2 -9.043 0.327 3.042
859 2 -10.561 0.43 3.377
860 2 -11.467 -0.175 2.301
861 2 -12.949 -0.127 2.661
862 4 -13.7 -1.109 2.47
863 3 -13.474 0.982 3.249
864 2 -14.826 1.066 3.852
865 2 -14.844 0.563 5.263
866 2 -16.259 0.52 5.968
867 2 -16.113 0.557 7.487
868 2 -17.402 0.629 8.328
869 2 -18.137 1.9 7.967
870 3 -17.266 3.021 7.821
871 2 -17.713 4.323 7.869
872 4 -18.901 4.542 8.062
873 1 -8.33 1.865 4.27
874 1 -7.082 0.729 3.945
875 1 -8.882 1.005 2.199
876 1 -8.779 -0.722 2.884
877 1 -10.701 -0.155 4.291
878 1 -10.798 1.487 3.525
879 1 -11.171 -1.228 2.295
880 1 -11.277 0.22 1.298
881 1 -12.812 1.675 3.594
882 1 -15.093 2.127 3.867
883 1 -15.644 0.579 3.313
884 1 -14.397 -0.435 5.276
885 1 -14.122 1.104 5.883
886 1 -16.723 -0.444 5.741
887 1 -16.899 1.265 5.487
888 1 -15.439 1.374 7.759
889 1 -15.602 -0.377 7.739
890 1 -17.286 0.579 9.414
891 1 -18.067 -0.199 8.066
892 1 -18.761 1.65 7.104
893 1 -18.832 2.15 8.774
894 1 -16.321 2.821 7.495
895 2 -16.723 5.436 7.74
896 2 -17.376 6.585 6.912
897 2 -16.204 7.604 6.597
898 2 -16.771 8.831 5.889
899 2 -15.731 9.958 5.708
900 4 -14.565 9.698 5.912
901 3 -16.141 11.213 5.344
902 2 -15.274 12.32 5.532
903 2 -15.989 13.529 4.841
904 2 -14.977 14.642 4.597
905 2 -15.412 15.627 3.481
906 2 -16.66 16.397 3.949
907 2 -17.149 17.291 2.956
908 3 -17.9 16.618 1.945
909 2 -17.38 16.115 0.737
910 4 -16.404 16.585 0.132
911 1 -16.434 5.822 8.721
912 1 -15.876 4.998 7.204
913 1 -17.909 6.225 6.028
914 1 -18.148 7.062 7.523
915 1 -15.804 7.881 7.577
916 1 -15.452 7.041 6.038
917 1 -17.484 9.278 6.589
918 1 -17.282 8.549 4.964
919 1 -17.143 11.349 5.471
920 1 -15.073 12.506 6.591
921 1 -14.347 12.125 4.985
922 1 -16.349 13.193 3.864
923 1 -16.866 13.877 5.395
924 1 -14.013 14.232 4.283
925 1 -14.699 15.124 5.539
926 1 -15.573 15.201 2.486
927 1 -14.604 16.363 3.444
928 1 -16.353 16.971 4.828
929 1 -17.453 15.739 4.315
930 1 -17.816 18.053 3.37
931 1 -16.32 17.763 2.42
932 1 -18.729 16.153 2.314
933 2 -18.204 15.051 0.096
934 2 -17.359 13.788 -0.246
935 2 -18.147 12.561 -0.781
936 2 -18.973 12.908 -2.04
937 2 -19.993 11.822 -2.382
938 4 -20.951 11.698 -1.598
939 3 -19.621 10.84 -3.211
940 2 -20.384 9.672 -3.499
941 2 -19.947 9.004 -4.831
942 2 -20.921 7.887 -5.172
943 2 -20.808 7.42 -6.634
944 2 -19.589 6.52 -6.805
945 2 -19.316 6.441 -8.32
946 3 -18.174 5.608 -8.613
947 2 -17.441 5.743 -9.788
948 4 -17.526 6.758 -10.435
949 1 -19.102 14.832 0.681
950 1 -18.521 15.296 -0.922
951 1 -16.546 14.04 -0.935
952 1 -16.811 13.395 0.615
953 1 -17.508 11.734 -1.102
954 1 -18.778 12.178 0.027
955 1 -18.333 12.976 -2.924
956 1 -19.543 13.822 -1.849
957 1 -18.698 10.95 -3.63
958 1 -20.331 9.013 -2.627
959 1 -21.405 9.997 -3.719
960 1 -19.873 9.737 -5.64
961 1 -18.931 8.618 -4.707
962 1 -21.916 8.326 -5.055
963 1 -20.766 6.99 -4.565
964 1 -20.727 8.248 -7.344
965 1 -21.666 6.828 -6.967
966 1 -19.791 5.5 -6.464
967 1 -18.701 6.925 -6.309
968 1 -20.246 6.004 -8.696
969 1 -19.23 7.407 -8.825
970 1 -18.032 4.752 -8.078
971 2 -16.312 4.729 -10.03
972 2 -16.213 4.217 -11.448
973 2 -17.385 3.588 -12.103
974 2 -17.898 2.415 -11.377
975 2 -19.006 2.632 -10.265
976 4 -19.833 3.489 -10.353
977 3 -18.821 1.803 -9.154
978 2 -19.641 1.994 -7.938
979 2 -21.172 1.78 -8.218
980 2 -21.466 0.366 -8.835
981 2 -22.74 0.263 -9.619
982 2 -22.695 1.058 -10.887
983 2 -21.976 0.404 -12.078
984 3 -22.373 0.975 -13.354
985 2 -21.926 2.222 -13.805
986 4 -21.177 2.926 -13.11
987 1 -15.391 5.234 -9.724
988 1 -16.489 3.873 -9.373
989 1 -15.98 5.072 -12.089
990 1 -15.441 3.443 -11.402
991 1 -18.162 4.322 -12.339
992 1 -17.038 3.313 -13.103
993 1 -17.032 1.929 -10.919
994 1 -18.258 1.712 -12.134
995 1 -18.063 1.121 -9.126
996 1 -19.331 1.292 -7.158
997 1 -19.433 2.963 -7.475
998 1 -21.772 1.897 -7.311
999 1 -21.536 2.566 -8.886
1000 1 -21.484 -0.275 -7.949
1001 1 -20.66 -0.003 -9.475
1002 1 -23.552 0.683 -9.017
1003 1 -22.983 -0.759 -9.923
1004 1 -22.292 2.062 -10.726
1005 1 -23.761 1.074 -11.13
1006 1 -20.901 0.603 -12.044
1007 1 -22.119 -0.68 -12.02
1008 1 -23.012 0.433 -13.935
1009 2 -22.254 2.734 -15.218
1010 2 -20.962 3.107 -16.012
1011 2 -20.145 1.927 -16.446
1012 2 -19.075 1.419 -15.408
1013 2 -18.191 0.262 -15.946
1014 4 -18.546 -0.913 -15.885
1015 3 -16.969 0.492 -16.584
1016 2 -15.867 -0.371 -16.886
1017 2 -15.34 -0.931 -15.582
1018 2 -14.902 0.115 -14.602
1019 2 -14.481 -0.509 -13.235
1020 2 -13.791 0.49 -12.301
1021 2 -13.197 -0.082 -10.957
1022 3 -12.555 0.883 -10.075
1023 2 -13.201 1.809 -9.252
1024 4 -14.418 1.865 -9.3
1025 1 -22.852 1.954 -15.699
1026 1 -22.765 3.696 -15.118
1027 1 -21.303 3.621 -16.916
1028 1 -20.272 3.792 -15.512
1029 1 -20.786 1.092 -16.744
1030 1 -19.574 2.195 -17.34
1031 1 -19.566 1.129 -14.475
1032 1 -18.425 2.272 -15.191
1033 1 -16.798 1.495 -16.641
1034 1 -16.037 -1.095 -17.688
1035 1 -14.991 0.179 -17.243
1036 1 -16.161 -1.444 -15.072
1037 1 -14.465 -1.549 -15.804
1038 1 -15.73 0.796 -14.385
1039 1 -14.103 0.735 -15.018
1040 1 -13.837 -1.383 -13.37
1041 1 -15.397 -0.79 -12.708
1042 1 -14.495 1.282 -12.031
1043 1 -12.909 0.913 -12.79
1044 1 -13.96 -0.582 -10.354
1045 1 -12.408 -0.803 -11.193
1046 1 -11.549 0.779 -9.946
1047 2 -12.518 2.695 -8.235
1048 2 -12.354 4.094 -8.885
1049 2 -11.207 4.192 -9.859
1050 2 -10.888 5.639 -10.339
1051 2 -11.766 5.894 -11.588
1052 4 -12.848 6.347 -11.303
1053 3 -11.437 5.481 -12.829
1054 2 -12.212 5.735 -14.06
1055 2 -12.269 4.447 -14.792
1056 2 -12.919 4.663 -16.184
1057 2 -12.323 5.726 -17.098
1058 2 -12.936 5.734 -18.507
1059 2 -14.304 6.425 -18.606
1060 3 -14.315 7.843 -18.104
1061 2 -15.213 8.794 -18.579
1062 4 -16.113 8.471 -19.314
1063 1 -13.186 2.805 -7.375
1064 1 -11.579 2.282 -7.857
1065 1 -13.296 4.424 -9.333
1066 1 -11.952 4.768 -8.123
1067 1 -10.319 3.808 -9.348
1068 1 -11.44 3.624 -10.764
1069 1 -9.843 5.699 -10.658
1070 1 -11.093 6.424 -9.605
1071 1 -10.522 5.043 -12.932
1072 1 -13.23 6.021 -13.781
1073 1 -11.68 6.531 -14.589
1074 1 -11.316 3.917 -14.882